# Probe 0 (0 0 0.0376992)
# Probe 1 (0 0.24 0.0376992)
#       Probe             0             1
#        Time
      8.70769             (0.194969 3.34415e-06 -1.51313e-06)             (0.194988 5.08403e-06 1.38719e-07)
      8.71538             (0.194969 1.95008e-06 -1.2198e-06)             (0.194987 9.90566e-06 -3.73891e-07)
      8.72308             (0.194969 7.45921e-06 -8.85895e-07)             (0.194979 1.53828e-05 -1.11231e-06)
      8.73077             (0.19497 5.23626e-06 -5.85312e-07)             (0.19498 1.73826e-05 -2.00545e-06)
      8.73846             (0.194972 8.60454e-06 -1.89573e-07)             (0.194975 1.94207e-05 -2.95715e-06)
      8.74615             (0.194973 4.91242e-06 5.05478e-07)             (0.194978 1.80202e-05 -3.78262e-06)
      8.75385             (0.194975 6.44932e-06 1.34713e-06)             (0.194977 1.65318e-05 -4.36576e-06)
      8.76154             (0.194977 1.58727e-06 2.13577e-06)             (0.194982 1.20689e-05 -4.50401e-06)
      8.76923             (0.194979 2.24217e-06 2.7869e-06)             (0.194983 8.14507e-06 -4.04172e-06)
      8.77692             (0.19498 -2.77727e-06 3.02868e-06)             (0.194989 2.24442e-06 -2.98606e-06)
      8.78462             (0.194981 -1.8789e-06 3.13277e-06)             (0.194988 -2.02485e-06 -1.25721e-06)
      8.79231             (0.194982 -6.49705e-06 3.22883e-06)             (0.194993 -7.32957e-06 1.04099e-06)
          8.8             (0.194982 -4.59877e-06 2.90184e-06)             (0.19499 -1.01534e-05 3.7098e-06)
      8.80769             (0.194983 -7.9784e-06 2.32814e-06)             (0.194991 -1.33767e-05 6.52648e-06)
      8.81538             (0.194982 -5.18525e-06 1.85995e-06)             (0.194985 -1.37117e-05 9.19707e-06)
      8.82308             (0.194981 -7.70059e-06 1.55985e-06)             (0.194983 -1.42835e-05 1.14194e-05)
      8.83077             (0.19498 -4.16754e-06 1.24501e-06)             (0.194976 -1.21175e-05 1.28867e-05)
      8.83846             (0.194978 -6.29547e-06 1.40443e-06)             (0.194973 -1.05764e-05 1.34236e-05)
      8.84615             (0.194976 -2.53524e-06 1.33221e-06)             (0.194966 -6.96351e-06 1.29601e-05)
      8.85385             (0.194973 -4.44282e-06 6.97445e-07)             (0.194965 -4.69971e-06 1.1518e-05)
      8.86154             (0.19497 -6.05256e-07 1.34558e-07)             (0.19496 -1.05669e-06 9.26679e-06)
      8.86923             (0.194968 -2.86598e-06 -5.17102e-07)             (0.194962 4.94913e-07 6.48295e-06)
      8.87692             (0.194966 1.24339e-06 -8.83215e-07)             (0.194961 3.00247e-06 3.45288e-06)
      8.88462             (0.194964 -9.90299e-07 -9.32618e-07)             (0.194966 3.12585e-06 5.07562e-07)
      8.89231             (0.194963 4.1397e-06 -7.49903e-07)             (0.194967 3.91169e-06 -1.99509e-06)
          8.9             (0.194963 2.88136e-06 -3.4401e-07)             (0.194975 2.30043e-06 -3.81647e-06)
      8.90769             (0.194964 4.01319e-06 3.69508e-08)             (0.194977 1.62372e-06 -4.83249e-06)
      8.91538             (0.194964 -9.44113e-07 3.79127e-07)             (0.194985 -1.0647e-06 -5.03059e-06)
      8.92308             (0.194966 -1.8644e-06 6.01369e-07)             (0.194986 -2.4284e-06 -4.50004e-06)
      8.93077             (0.194967 -9.11645e-06 1.04469e-06)             (0.194993 -5.26841e-06 -3.40104e-06)
      8.93846             (0.194969 -8.99363e-06 1.45249e-06)             (0.194993 -6.41258e-06 -1.97195e-06)
      8.94615             (0.19497 -1.30056e-05 1.17174e-06)             (0.194997 -8.70602e-06 -4.78167e-07)
      8.95385             (0.194971 -9.90641e-06 3.99427e-07)             (0.194995 -8.95296e-06 8.12162e-07)
      8.96154             (0.194971 -1.14457e-05 -6.26619e-07)             (0.194998 -1.03372e-05 1.70464e-06)
      8.96923             (0.194971 -6.05685e-06 -2.05378e-06)             (0.194994 -9.5572e-06 2.08587e-06)
      8.97692             (0.19497 -6.44443e-06 -3.3376e-06)             (0.194996 -9.98271e-06 1.92734e-06)
      8.98462             (0.194969 -1.32731e-06 -4.04897e-06)             (0.194992 -8.39356e-06 1.27598e-06)
      8.99231             (0.194968 -2.72117e-06 -4.15975e-06)             (0.194994 -8.0188e-06 2.69354e-07)
            9             (0.194967 8.59342e-07 -3.60975e-06)             (0.19499 -5.83936e-06 -9.15717e-07)
      9.00769             (0.194967 -2.25004e-06 -2.60745e-06)             (0.194992 -4.97506e-06 -2.09914e-06)
      9.01538             (0.194966 -5.30697e-07 -1.26822e-06)             (0.194988 -2.48451e-06 -3.0628e-06)
      9.02308             (0.194966 -4.80232e-06 2.95843e-07)             (0.194989 -1.38432e-06 -3.68695e-06)
      9.03077             (0.194965 -3.56091e-06 1.92621e-06)             (0.194984 1.11945e-06 -3.9259e-06)
      9.03846             (0.194964 -7.90202e-06 3.21746e-06)             (0.194984 1.9719e-06 -3.77593e-06)
      9.04615             (0.194963 -5.78899e-06 4.05893e-06)             (0.194978 4.21188e-06 -3.3242e-06)
      9.05385             (0.194962 -8.56498e-06 4.30451e-06)             (0.194977 4.59933e-06 -2.68233e-06)
      9.06154             (0.194961 -4.13331e-06 3.90272e-06)             (0.19497 6.26345e-06 -1.99434e-06)
      9.06923             (0.194959 -4.40649e-06 2.92418e-06)             (0.194968 5.93572e-06 -1.38452e-06)
      9.07692             (0.194958 1.59113e-06 1.40288e-06)             (0.194961 6.8077e-06 -9.30015e-07)
      9.08462             (0.194958 1.0985e-06 -4.6145e-07)             (0.194959 5.69965e-06 -6.95512e-07)
      9.09231             (0.194959 5.07142e-06 -2.28666e-06)             (0.194953 5.82161e-06 -7.01242e-07)
          9.1             (0.19496 1.65474e-06 -3.98497e-06)             (0.194952 4.07072e-06 -8.79351e-07)
      9.10769             (0.194962 3.51778e-06 -5.31332e-06)             (0.194947 3.69979e-06 -1.15709e-06)
      9.11538             (0.194964 -1.13909e-06 -6.04734e-06)             (0.194948 1.62009e-06 -1.43659e-06)
      9.12308             (0.194966 -1.02501e-06 -6.5227e-06)             (0.194945 1.09467e-06 -1.62495e-06)
      9.13077             (0.194969 -6.85387e-06 -6.52456e-06)             (0.194948 -9.37899e-07 -1.69154e-06)
      9.13846             (0.19497 -5.95871e-06 -5.80889e-06)             (0.194946 -1.37913e-06 -1.50481e-06)
      9.14615             (0.194972 -9.45457e-06 -4.54403e-06)             (0.19495 -3.15307e-06 -1.07467e-06)
      9.15385             (0.194974 -5.7281e-06 -2.98606e-06)             (0.194949 -3.31094e-06 -5.20742e-07)
      9.16154             (0.194976 -6.6853e-06 -1.21233e-06)             (0.194953 -4.86994e-06 1.0373e-07)
      9.16923             (0.194977 -1.15619e-06 7.24468e-07)             (0.194951 -4.80558e-06 6.66727e-07)
      9.17692             (0.194979 -1.00743e-06 2.23406e-06)             (0.194954 -6.21179e-06 1.04307e-06)
      9.18462             (0.19498 4.62742e-06 3.29227e-06)             (0.194951 -6.03891e-06 1.21579e-06)
      9.19231             (0.194982 3.83982e-06 3.87634e-06)             (0.194953 -7.39345e-06 1.21365e-06)
          9.2             (0.194983 7.75863e-06 4.11232e-06)             (0.194948 -7.05742e-06 1.02415e-06)
      9.20769             (0.194985 4.62446e-06 3.99805e-06)             (0.19495 -8.22638e-06 7.3715e-07)
      9.21538             (0.194986 5.94501e-06 3.40771e-06)             (0.194945 -7.59843e-06 4.96985e-07)
      9.22308             (0.194987 3.89668e-07 2.65998e-06)             (0.194946 -8.27741e-06 4.81875e-07)
      9.23077             (0.194988 -8.58363e-09 1.98713e-06)             (0.194943 -7.14798e-06 8.17127e-07)
      9.23846             (0.194989 -6.19034e-06 1.46151e-06)             (0.194946 -7.20688e-06 1.59078e-06)
      9.24615             (0.194989 -6.5156e-06 1.18874e-06)             (0.194944 -5.49597e-06 2.85479e-06)
      9.25385             (0.194988 -1.18736e-05 1.22944e-06)             (0.194948 -5.06227e-06 4.56308e-06)
      9.26154             (0.194987 -9.94701e-06 1.52304e-06)             (0.194948 -3.01991e-06 6.5972e-06)
      9.26923             (0.194985 -1.23369e-05 2.02538e-06)             (0.194953 -2.50567e-06 8.73548e-06)
      9.27692             (0.194982 -7.68816e-06 2.52005e-06)             (0.194953 -5.98456e-07 1.07238e-05)
      9.28462             (0.194979 -7.93648e-06 2.36516e-06)             (0.194958 -5.93485e-07 1.22944e-05)
      9.29231             (0.194975 -2.20369e-06 1.94883e-06)             (0.194957 6.8989e-07 1.31841e-05)
          9.3             (0.194972 -2.30533e-06 1.89017e-06)             (0.194961 -3.76873e-08 1.31911e-05)
      9.30769             (0.194969 2.70699e-06 1.76707e-06)             (0.194958 4.2316e-07 1.22159e-05)
      9.31538             (0.194966 1.11245e-06 1.59706e-06)             (0.194959 -9.16731e-07 1.02587e-05)
      9.32308             (0.194965 4.25792e-06 1.66507e-06)             (0.194953 -8.40627e-07 7.42339e-06)
      9.33077             (0.194964 5.45216e-07 2.0298e-06)             (0.194952 -2.18136e-06 3.99708e-06)
      9.33846             (0.194963 2.53807e-06 3.1365e-06)             (0.194944 -1.70991e-06 1.6654e-07)
      9.34615             (0.194964 -1.03162e-06 4.6372e-06)             (0.194942 -2.22338e-06 -3.65765e-06)
      9.35385             (0.194964 1.07431e-06 5.79236e-06)             (0.194935 -6.24327e-07 -6.95412e-06)
      9.36154             (0.194963 -2.11636e-06 6.92877e-06)             (0.194934 7.11701e-08 -9.50964e-06)
      9.36923             (0.194962 1.47814e-06 8.24629e-06)             (0.194928 2.88874e-06 -1.10929e-05)
      9.37692             (0.194961 -3.11715e-09 9.01582e-06)             (0.194929 4.51258e-06 -1.15514e-05)
      9.38462             (0.194959 5.00028e-06 8.97434e-06)             (0.194926 7.83112e-06 -1.08997e-05)
      9.39231             (0.194957 4.14055e-06 8.21658e-06)             (0.19493 9.44654e-06 -9.25413e-06)
          9.4             (0.194955 7.94463e-06 6.05566e-06)             (0.19493 1.20518e-05 -6.83366e-06)
      9.40769             (0.194953 5.68277e-06 3.15317e-06)             (0.194935 1.22935e-05 -3.94512e-06)
      9.41538             (0.19495 8.04891e-06 5.01104e-07)             (0.194936 1.29568e-05 -9.6455e-07)
      9.42308             (0.194948 3.12279e-06 -1.78553e-06)             (0.194942 1.09468e-05 1.7535e-06)
      9.43077             (0.194946 2.73909e-06 -4.32321e-06)             (0.194943 9.28442e-06 3.92441e-06)
      9.43846             (0.194944 -3.77299e-06 -6.60903e-06)             (0.194948 5.02432e-06 5.35676e-06)
      9.44615             (0.194943 -4.08498e-06 -7.83607e-06)             (0.194947 1.61215e-06 5.93351e-06)
      9.45385             (0.194942 -9.18561e-06 -8.28105e-06)             (0.194951 -3.80564e-06 5.62389e-06)
      9.46154             (0.194943 -7.46065e-06 -8.37002e-06)             (0.194949 -7.63486e-06 4.59931e-06)
      9.46923             (0.194944 -9.92997e-06 -8.20358e-06)             (0.194953 -1.24568e-05 3.05165e-06)
      9.47692             (0.194946 -5.5171e-06 -7.6402e-06)             (0.19495 -1.4924e-05 1.25165e-06)
      9.48462             (0.19495 -6.0292e-06 -6.94607e-06)             (0.194953 -1.7807e-05 -4.93663e-07)
      9.49231             (0.194954 -6.31451e-07 -6.28853e-06)             (0.19495 -1.78906e-05 -1.97726e-06)
          9.5             (0.194958 -1.29439e-06 -5.60716e-06)             (0.194953 -1.81727e-05 -2.97991e-06)
      9.50769             (0.194961 2.93978e-06 -5.00331e-06)             (0.194951 -1.57194e-05 -3.39491e-06)
      9.51538             (0.194964 2.07075e-08 -4.63801e-06)             (0.194953 -1.38739e-05 -3.2331e-06)
      9.52308             (0.194966 1.49996e-06 -4.3599e-06)             (0.194949 -9.88781e-06 -2.57094e-06)
      9.53077             (0.194966 -3.59996e-06 -4.32516e-06)             (0.194949 -7.18404e-06 -1.56339e-06)
      9.53846             (0.194966 -3.91642e-06 -4.12994e-06)             (0.194943 -3.1153e-06 -4.06165e-07)
      9.54615             (0.194964 -1.01492e-05 -3.35701e-06)             (0.194942 -1.02823e-06 6.91664e-07)
      9.55385             (0.194963 -1.04784e-05 -2.19678e-06)             (0.194933 1.8474e-06 1.55166e-06)
      9.56154             (0.194961 -1.55641e-05 -5.10026e-07)             (0.19493 2.36549e-06 2.02097e-06)
      9.56923             (0.19496 -1.38969e-05 1.21232e-06)             (0.194921 3.46215e-06 1.99431e-06)
      9.57692             (0.194959 -1.70153e-05 2.51658e-06)             (0.194917 2.27305e-06 1.52222e-06)
      9.58462             (0.194959 -1.35205e-05 3.55166e-06)             (0.19491 1.97631e-06 7.70449e-07)
      9.59231             (0.19496 -1.47618e-05 3.93598e-06)             (0.194909 -2.11425e-07 -1.20724e-07)
          9.6             (0.194963 -9.59282e-06 3.33961e-06)             (0.194905 -9.34265e-07 -9.647e-07)
      9.60769             (0.194965 -1.03577e-05 2.06825e-06)             (0.19491 -3.19451e-06 -1.56047e-06)
      9.61538             (0.194968 -5.578e-06 4.88377e-07)             (0.194911 -3.54255e-06 -1.73593e-06)
      9.62308             (0.194971 -7.00886e-06 -1.08779e-06)             (0.19492 -5.05737e-06 -1.36511e-06)
      9.63077             (0.194973 -3.33833e-06 -2.44868e-06)             (0.194926 -4.57132e-06 -4.25195e-07)
      9.63846             (0.194974 -5.71295e-06 -3.15211e-06)             (0.194937 -5.195e-06 1.00401e-06)
      9.64615             (0.194974 -2.85568e-06 -3.15027e-06)             (0.194944 -3.9968e-06 2.7397e-06)
      9.65385             (0.194973 -5.33293e-06 -2.46228e-06)             (0.194955 -3.98364e-06 4.58103e-06)
      9.66154             (0.194971 -1.93152e-06 -1.25502e-06)             (0.194958 -2.48616e-06 6.21748e-06)
      9.66923             (0.194969 -3.71418e-06 3.90628e-07)             (0.194965 -2.44446e-06 7.37083e-06)
      9.67692             (0.194967 7.5794e-07 1.89519e-06)             (0.194962 -1.04944e-06 7.81323e-06)
      9.68462             (0.194965 -3.96154e-07 2.89627e-06)             (0.194962 -1.43657e-06 7.43376e-06)
      9.69231             (0.194963 4.11713e-06 3.22975e-06)             (0.194954 -4.42662e-07 6.10725e-06)
          9.7             (0.194962 2.31527e-06 2.57541e-06)             (0.194949 -1.32662e-06 3.8649e-06)
      9.70769             (0.194962 5.24313e-06 1.69555e-06)             (0.194936 -7.46324e-07 9.59714e-07)
      9.71538             (0.194963 1.11404e-06 4.86901e-07)             (0.194929 -1.74091e-06 -2.35672e-06)
      9.72308             (0.194964 1.18546e-06 -8.37989e-07)             (0.194918 -1.15627e-06 -5.74596e-06)
      9.73077             (0.194966 -5.57896e-06 -1.54279e-06)             (0.194913 -1.7983e-06 -8.88227e-06)
      9.73846             (0.194968 -7.25533e-06 -1.61548e-06)             (0.194906 -7.10036e-07 -1.14084e-05)
      9.74615             (0.194968 -1.50137e-05 -8.98669e-07)             (0.194907 -6.58266e-07 -1.30296e-05)
      9.75385             (0.194969 -1.68119e-05 4.44189e-07)             (0.194906 1.34427e-06 -1.35812e-05)
      9.76154             (0.19497 -2.25533e-05 2.12828e-06)             (0.194913 2.30103e-06 -1.29895e-05)
      9.76923             (0.19497 -2.06955e-05 3.7851e-06)             (0.194918 5.17318e-06 -1.13054e-05)
      9.77692             (0.194969 -2.23058e-05 4.65413e-06)             (0.19493 6.7274e-06 -8.70959e-06)
      9.78462             (0.194968 -1.58405e-05 4.79984e-06)             (0.194937 9.95301e-06 -5.47879e-06)
      9.79231             (0.194966 -1.32902e-05 4.06366e-06)             (0.194949 1.16015e-05 -1.91116e-06)
          9.8             (0.194964 -4.08253e-06 2.37917e-06)             (0.194955 1.46136e-05 1.67016e-06)
      9.80769             (0.194961 -1.75109e-07 2.54457e-07)             (0.194965 1.56164e-05 4.92444e-06)
      9.81538             (0.194959 8.82179e-06 -2.26017e-06)             (0.194966 1.75004e-05 7.60277e-06)
      9.82308             (0.194957 1.07966e-05 -4.3939e-06)             (0.194971 1.71574e-05 9.55337e-06)
      9.83077             (0.194955 1.59112e-05 -5.81086e-06)             (0.194967 1.73678e-05 1.07084e-05)
      9.83846             (0.194953 1.3026e-05 -5.9613e-06)             (0.194967 1.52633e-05 1.1108e-05)
      9.84615             (0.194952 1.32894e-05 -4.39483e-06)             (0.19496 1.36397e-05 1.08747e-05)
      9.85385             (0.194951 5.95441e-06 -1.56488e-06)             (0.194957 9.7838e-06 1.01821e-05)
      9.86154             (0.194951 2.2838e-06 2.0028e-06)             (0.194949 6.70845e-06 9.23099e-06)
      9.86923             (0.194952 -7.90449e-06 5.63023e-06)             (0.194947 1.60622e-06 8.25993e-06)
      9.87692             (0.194953 -1.15849e-05 8.7109e-06)             (0.19494 -2.17695e-06 7.39458e-06)
      9.88462             (0.194955 -1.94299e-05 1.0769e-05)             (0.194942 -7.60485e-06 6.66878e-06)
      9.89231             (0.194957 -1.94869e-05 1.11825e-05)             (0.194939 -1.10928e-05 6.12914e-06)
          9.9             (0.194959 -2.31487e-05 9.46033e-06)             (0.194944 -1.56739e-05 5.74896e-06)
      9.90769             (0.194961 -1.90455e-05 5.907e-06)             (0.194945 -1.80881e-05 5.39655e-06)
      9.91538             (0.194962 -1.84931e-05 1.14262e-06)             (0.194954 -2.10716e-05 4.92939e-06)
      9.92308             (0.194962 -9.69333e-06 -4.06684e-06)             (0.194958 -2.16324e-05 4.20615e-06)
      9.93077             (0.194961 -5.92802e-06 -8.80042e-06)             (0.194967 -2.26391e-05 3.08727e-06)
      9.93846             (0.19496 1.72761e-06 -1.22079e-05)             (0.194972 -2.12838e-05 1.49518e-06)
      9.94615             (0.19496 3.22161e-06 -1.37603e-05)             (0.194981 -2.05403e-05 -5.84956e-07)
      9.95385             (0.194959 9.33643e-06 -1.31087e-05)             (0.194984 -1.76383e-05 -3.06401e-06)
      9.96154             (0.194959 8.71816e-06 -1.02552e-05)             (0.194992 -1.57511e-05 -5.8202e-06)
      9.96923             (0.19496 1.28381e-05 -5.7005e-06)             (0.194992 -1.20477e-05 -8.6124e-06)
      9.97692             (0.194962 1.03195e-05 -2.33186e-07)             (0.194997 -9.7718e-06 -1.11772e-05)
      9.98462             (0.194966 1.26093e-05 5.27798e-06)             (0.194994 -6.01353e-06 -1.3268e-05)
      9.99231             (0.19497 8.62862e-06 9.72784e-06)             (0.194996 -4.03748e-06 -1.46671e-05)
           10             (0.194975 9.48334e-06 1.24105e-05)             (0.194992 -9.06651e-07 -1.52165e-05)
      10.0077             (0.19498 4.0483e-06 1.27987e-05)             (0.194992 3.13635e-07 -1.48557e-05)
      10.0154             (0.194984 3.63026e-06 1.09362e-05)             (0.194987 2.599e-06 -1.36239e-05)
      10.0231             (0.194987 -2.96234e-06 7.40577e-06)             (0.194986 2.98882e-06 -1.16334e-05)
      10.0308             (0.194988 -4.25394e-06 2.6917e-06)             (0.19498 4.49475e-06 -9.08979e-06)
      10.0385             (0.194987 -1.07513e-05 -2.44765e-06)             (0.19498 4.24655e-06 -6.29776e-06)
      10.0462             (0.194984 -1.11619e-05 -6.85767e-06)             (0.194974 5.28101e-06 -3.5657e-06)
      10.0538             (0.194979 -1.60885e-05 -9.97665e-06)             (0.194973 4.74991e-06 -1.15153e-06)
      10.0615             (0.194975 -1.40098e-05 -1.13551e-05)             (0.194967 5.68066e-06 6.69299e-07)
      10.0692             (0.19497 -1.58269e-05 -1.04065e-05)             (0.194967 5.13403e-06 1.72302e-06)
      10.0769             (0.194966 -1.03288e-05 -7.44784e-06)             (0.194962 6.13339e-06 2.00493e-06)
      10.0846             (0.194963 -8.94047e-06 -3.14083e-06)             (0.194962 5.74631e-06 1.50757e-06)
      10.0923             (0.194964 -1.13105e-06 1.33787e-06)             (0.194957 6.97501e-06 3.48367e-07)
         10.1             (0.194966 9.8868e-07 5.44688e-06)             (0.194958 6.681e-06 -1.21881e-06)
      10.1077             (0.19497 7.94033e-06 8.64315e-06)             (0.194954 7.90052e-06 -2.88252e-06)
      10.1154             (0.194975 7.9582e-06 1.00961e-05)             (0.194956 7.54373e-06 -4.37426e-06)
      10.1231             (0.194981 1.15099e-05 9.56778e-06)             (0.194954 8.53614e-06 -5.41837e-06)
      10.1308             (0.194986 7.12742e-06 6.96298e-06)             (0.194958 7.81104e-06 -5.82069e-06)
      10.1385             (0.19499 6.15416e-06 3.10735e-06)             (0.194958 8.29115e-06 -5.51331e-06)
      10.1462             (0.194992 -2.07218e-06 -1.58588e-06)             (0.194965 7.04456e-06 -4.43028e-06)
      10.1538             (0.194991 -5.70722e-06 -6.01305e-06)             (0.194967 6.86947e-06 -2.678e-06)
      10.1615             (0.194989 -1.4527e-05 -9.36611e-06)             (0.194975 4.98371e-06 -4.53751e-07)
      10.1692             (0.194986 -1.68929e-05 -1.11759e-05)             (0.194979 4.23073e-06 1.98407e-06)
      10.1769             (0.194982 -2.29197e-05 -1.0804e-05)             (0.194988 1.73258e-06 4.36782e-06)
      10.1846             (0.194979 -2.08922e-05 -8.85693e-06)             (0.194991 5.54367e-07 6.3932e-06)
      10.1923             (0.194976 -2.1702e-05 -5.92892e-06)             (0.194999 -2.22196e-06 7.7819e-06)
         10.2             (0.194975 -1.46287e-05 -2.41391e-06)             (0.195001 -3.41076e-06 8.39808e-06)
      10.2077             (0.194977 -1.1921e-05 1.61631e-06)             (0.195007 -6.12416e-06 8.20069e-06)
      10.2154             (0.194979 -3.07989e-06 5.35659e-06)             (0.195006 -7.09715e-06 7.23052e-06)
      10.2231             (0.194983 -1.51877e-07 7.96093e-06)             (0.195008 -9.21345e-06 5.63816e-06)
      10.2308             (0.194987 6.93304e-06 9.03397e-06)             (0.195004 -9.47099e-06 3.66713e-06)
      10.2385             (0.19499 6.71526e-06 8.68045e-06)             (0.195003 -1.06226e-05 1.61441e-06)
      10.2462             (0.194993 9.72791e-06 7.54066e-06)             (0.194995 -9.80575e-06 -1.9001e-07)
      10.2538             (0.194992 5.36552e-06 5.90829e-06)             (0.194991 -9.8372e-06 -1.45566e-06)
      10.2615             (0.194989 5.0774e-06 3.70884e-06)             (0.194981 -7.7513e-06 -1.99133e-06)
      10.2692             (0.194985 -1.4732e-06 1.76116e-06)             (0.194976 -6.59208e-06 -1.65228e-06)
      10.2769             (0.19498 -2.19575e-06 7.55287e-07)             (0.194966 -3.39708e-06 -4.28928e-07)
      10.2846             (0.194974 -7.16773e-06 7.99204e-07)             (0.194962 -1.26659e-06 1.5903e-06)
      10.2923             (0.19497 -5.22915e-06 2.19808e-06)             (0.194954 2.58806e-06 4.14294e-06)
         10.3             (0.194967 -7.2051e-06 4.49149e-06)             (0.194952 5.14129e-06 6.93246e-06)
      10.3077             (0.194966 -2.34219e-06 6.59592e-06)             (0.194947 9.04661e-06 9.67679e-06)
      10.3154             (0.194967 -2.43593e-06 8.40702e-06)             (0.194948 1.13036e-05 1.20167e-05)
      10.3231             (0.194969 2.53712e-06 9.64796e-06)             (0.194946 1.46322e-05 1.36556e-05)
      10.3308             (0.194971 -4.66689e-07 9.33767e-06)             (0.19495 1.59086e-05 1.43737e-05)
      10.3385             (0.194974 1.61621e-07 7.1514e-06)             (0.19495 1.80883e-05 1.40542e-05)
      10.3462             (0.194976 -7.36887e-06 3.724e-06)             (0.194956 1.80124e-05 1.26866e-05)
      10.3538             (0.194977 -9.46337e-06 -3.84093e-07)             (0.194958 1.87764e-05 1.03887e-05)
      10.3615             (0.194975 -1.43669e-05 -4.65943e-06)             (0.194965 1.73831e-05 7.36319e-06)
      10.3692             (0.194972 -1.33127e-05 -8.1708e-06)             (0.194966 1.68795e-05 3.86957e-06)
      10.3769             (0.194969 -1.6497e-05 -1.04772e-05)             (0.194973 1.457e-05 2.15747e-07)
      10.3846             (0.194965 -1.31677e-05 -1.11422e-05)             (0.194974 1.34016e-05 -3.29164e-06)
      10.3923             (0.194962 -1.39479e-05 -9.94041e-06)             (0.19498 1.07167e-05 -6.4008e-06)
         10.4             (0.19496 -8.1398e-06 -7.11957e-06)             (0.19498 9.6039e-06 -8.89914e-06)
      10.4077             (0.19496 -7.31427e-06 -3.19381e-06)             (0.194986 7.17484e-06 -1.06606e-05)
      10.4154             (0.194963 -4.34438e-07 1.02755e-06)             (0.194985 6.57332e-06 -1.16526e-05)
      10.4231             (0.194967 6.29217e-07 4.62372e-06)             (0.19499 4.82031e-06 -1.19094e-05)
      10.4308             (0.194972 6.48116e-06 6.98745e-06)             (0.19499 4.92234e-06 -1.15309e-05)
      10.4385             (0.194978 5.8281e-06 7.76055e-06)             (0.194995 3.89518e-06 -1.06556e-05)
      10.4462             (0.194984 9.03598e-06 6.63975e-06)             (0.194995 4.60548e-06 -9.43622e-06)
      10.4538             (0.194988 5.38345e-06 3.81007e-06)             (0.195 4.10139e-06 -8.03137e-06)
      10.4615             (0.19499 5.88834e-06 -1.61722e-07)             (0.195 5.18482e-06 -6.57615e-06)
      10.4692             (0.19499 3.53329e-07 -4.51805e-06)             (0.195005 4.96163e-06 -5.16023e-06)
      10.4769             (0.194987 1.21337e-07 -8.40284e-06)             (0.195005 6.28136e-06 -3.85512e-06)
      10.4846             (0.194982 -5.12193e-06 -1.09873e-05)             (0.195009 6.26104e-06 -2.69439e-06)
      10.4923             (0.194976 -3.30769e-06 -1.15565e-05)             (0.195007 7.89802e-06 -1.68768e-06)
         10.5             (0.194969 -4.99496e-06 -1.00015e-05)             (0.19501 8.27426e-06 -8.23209e-07)
      10.5077             (0.194962 1.1933e-06 -6.8465e-06)             (0.195005 1.04838e-05 -1.14443e-07)
      10.5154             (0.194957 3.94587e-06 -2.33246e-06)             (0.195006 1.15425e-05 4.55979e-07)
      10.5231             (0.194953 1.36793e-05 2.96003e-06)             (0.194999 1.44922e-05 9.31847e-07)
      10.5308             (0.194951 1.90895e-05 7.86871e-06)             (0.194997 1.6393e-05 1.19664e-06)
      10.5385             (0.194951 3.00673e-05 1.12769e-05)             (0.194988 2.00589e-05 1.29294e-06)
      10.5462             (0.194953 3.52151e-05 1.24628e-05)             (0.194985 2.25748e-05 1.32111e-06)
      10.5538             (0.194956 4.46264e-05 1.11114e-05)             (0.194976 2.66134e-05 1.24575e-06)
      10.5615             (0.19496 4.72118e-05 7.46788e-06)             (0.194972 2.91147e-05 1.01592e-06)
      10.5692             (0.194964 5.35429e-05 1.84848e-06)             (0.194965 3.28313e-05 7.50946e-07)
      10.5769             (0.194969 5.30406e-05 -5.10455e-06)             (0.194963 3.46604e-05 5.59145e-07)
      10.5846             (0.194974 5.68713e-05 -1.19816e-05)             (0.194957 3.73209e-05 4.50047e-07)
      10.5923             (0.194979 5.45517e-05 -1.763e-05)             (0.194959 3.78448e-05 5.40626e-07)
         10.6             (0.194983 5.73953e-05 -2.11849e-05)             (0.194956 3.9028e-05 8.61107e-07)
      10.6077             (0.194987 5.47603e-05 -2.19797e-05)             (0.19496 3.79713e-05 1.40725e-06)
      10.6154             (0.19499 5.75192e-05 -1.99422e-05)             (0.194959 3.75509e-05 2.1584e-06)
      10.6231             (0.194992 5.29729e-05 -1.54744e-05)             (0.194965 3.49522e-05 3.01959e-06)
      10.6308             (0.194992 5.14545e-05 -9.53706e-06)             (0.194965 3.31336e-05 3.86162e-06)
      10.6385             (0.194992 4.71746e-05 -2.68644e-06)             (0.194971 2.92376e-05 4.55428e-06)
      10.6462             (0.194991 5.08456e-05 4.09752e-06)             (0.194971 2.63034e-05 4.89542e-06)
      10.6538             (0.194989 4.84726e-05 9.20886e-06)             (0.194976 2.15391e-05 4.7117e-06)
      10.6615             (0.194988 4.97712e-05 1.18633e-05)             (0.194976 1.78986e-05 3.90827e-06)
      10.6692             (0.194987 4.15456e-05 1.19573e-05)             (0.19498 1.25965e-05 2.44992e-06)
      10.6769             (0.194987 3.61502e-05 9.37767e-06)             (0.194979 8.62109e-06 3.93832e-07)
      10.6846             (0.194988 2.49257e-05 4.2814e-06)             (0.194984 3.22472e-06 -2.15105e-06)
      10.6923             (0.194989 1.618e-05 -1.44873e-06)             (0.194983 -5.28913e-07 -4.99163e-06)
         10.7             (0.194992 2.57752e-06 -6.75733e-06)             (0.194989 -5.44045e-06 -7.84815e-06)
      10.7077             (0.194995 -1.41922e-06 -1.12069e-05)             (0.19499 -8.33417e-06 -1.04225e-05)
      10.7154             (0.194998 -9.47491e-06 -1.37474e-05)             (0.194997 -1.19562e-05 -1.24468e-05)
      10.7231             (0.195001 -1.03009e-05 -1.37976e-05)             (0.195 -1.3205e-05 -1.36698e-05)
      10.7308             (0.195003 -1.48955e-05 -1.15141e-05)             (0.195009 -1.48444e-05 -1.39232e-05)
      10.7385             (0.195003 -1.52918e-05 -7.74664e-06)             (0.195012 -1.39677e-05 -1.31605e-05)
      10.7462             (0.195001 -1.97994e-05 -3.01754e-06)             (0.195021 -1.33573e-05 -1.14187e-05)
      10.7538             (0.194997 -1.69252e-05 1.87199e-06)             (0.195023 -1.03933e-05 -8.86597e-06)
      10.7615             (0.194993 -2.05776e-05 6.02451e-06)             (0.195029 -8.01972e-06 -5.75414e-06)
      10.7692             (0.194987 -2.12452e-05 8.71612e-06)             (0.195028 -3.69408e-06 -2.39549e-06)
      10.7769             (0.194982 -2.99578e-05 9.5961e-06)             (0.195031 -7.09973e-07 8.62193e-07)
      10.7846             (0.194977 -3.48973e-05 8.72601e-06)             (0.195026 3.6259e-06 3.69993e-06)
      10.7923             (0.194973 -4.49091e-05 6.3918e-06)             (0.195024 5.91406e-06 5.82675e-06)
         10.8             (0.194972 -4.70173e-05 3.16206e-06)             (0.195015 8.8921e-06 7.08399e-06)