# Probe 0 (0 0 0.0376992)
# Probe 1 (0 0.24 0.0376992)
#       Probe             0             1
#        Time
      1.70769             (0.194854 -2.98627e-06 -1.34549e-06)             (0.194858 -2.76992e-06 8.08221e-07)
      1.71538             (0.194856 -2.27211e-06 -1.09763e-06)             (0.194858 -2.68284e-06 8.86044e-07)
      1.72308             (0.194857 -2.71957e-06 -1.06375e-06)             (0.194859 -2.86239e-06 9.89579e-07)
      1.73077             (0.194858 -2.30162e-06 -8.52547e-07)             (0.19486 -2.86816e-06 1.11294e-06)
      1.73846             (0.194859 -2.00555e-06 -4.3512e-07)             (0.194861 -3.08921e-06 1.23032e-06)
      1.74615             (0.19486 -9.99592e-07 -4.94974e-07)             (0.194861 -3.1191e-06 1.32012e-06)
      1.75385             (0.194861 -1.06428e-06 -7.67899e-07)             (0.194862 -3.3792e-06 1.38601e-06)
      1.76154             (0.194862 -8.6346e-07 -6.82276e-07)             (0.194863 -3.40616e-06 1.40966e-06)
      1.76923             (0.194863 -1.36073e-06 -4.56314e-07)             (0.194864 -3.5626e-06 1.38821e-06)
      1.77692             (0.194864 -1.1311e-06 -5.3047e-07)             (0.194864 -3.4792e-06 1.31404e-06)
      1.78462             (0.194865 -1.52188e-06 -4.37248e-07)             (0.194865 -3.49287e-06 1.20538e-06)
      1.79231             (0.194865 -1.38988e-06 -3.07339e-07)             (0.194865 -3.19176e-06 1.09017e-06)
          1.8             (0.194866 -2.03234e-06 -4.19732e-07)             (0.194865 -2.97388e-06 9.65496e-07)
      1.80769             (0.194867 -1.56218e-06 -5.66918e-07)             (0.194865 -2.45926e-06 8.44755e-07)
      1.81538             (0.194867 -2.2359e-06 -5.58499e-07)             (0.194865 -2.11662e-06 7.73797e-07)
      1.82308             (0.194867 -1.99077e-06 -5.39113e-07)             (0.194864 -1.53482e-06 7.17755e-07)
      1.83077             (0.194867 -2.37371e-06 -3.65359e-07)             (0.194864 -1.13438e-06 7.02294e-07)
      1.83846             (0.194867 -2.01577e-06 -7.70521e-08)             (0.194863 -5.54355e-07 7.16588e-07)
      1.84615             (0.194866 -1.96566e-06 -2.83385e-07)             (0.194863 -2.07699e-07 7.36707e-07)
      1.85385             (0.194866 -1.18742e-06 -3.24689e-07)             (0.194862 3.33034e-07 8.05738e-07)
      1.86154             (0.194866 -1.19192e-06 8.89873e-09)             (0.194862 6.46326e-07 8.31371e-07)
      1.86923             (0.194867 -1.13251e-07 1.30723e-07)             (0.194861 1.22609e-06 8.10291e-07)
      1.87692             (0.194867 -3.2591e-07 2.86147e-07)             (0.19486 1.56437e-06 7.54682e-07)
      1.88462             (0.194867 5.47519e-07 -1.84132e-07)             (0.194859 2.12272e-06 6.39789e-07)
      1.89231             (0.194867 3.34823e-07 -6.24574e-07)             (0.194859 2.52545e-06 4.86846e-07)
          1.9             (0.194867 2.97554e-07 -1.04553e-06)             (0.194857 3.14084e-06 3.04427e-07)
      1.90769             (0.194867 -3.47424e-07 -1.39387e-06)             (0.194857 3.63504e-06 1.09557e-07)
      1.91538             (0.194868 -3.09297e-07 -1.37204e-06)             (0.194856 4.2202e-06 -8.64542e-08)
      1.92308             (0.194868 -1.1025e-06 -1.37759e-06)             (0.194855 4.4936e-06 -2.58054e-07)
      1.93077             (0.194868 -8.72479e-07 -1.30782e-06)             (0.194854 4.92791e-06 -3.80702e-07)
      1.93846             (0.194869 -1.36128e-06 -1.62927e-06)             (0.194854 4.92734e-06 -4.66473e-07)
      1.94615             (0.19487 -1.43099e-06 -2.00073e-06)             (0.194853 5.02431e-06 -4.90364e-07)
      1.95385             (0.19487 -2.2543e-06 -2.28739e-06)             (0.194853 4.62977e-06 -4.72927e-07)
      1.96154             (0.194871 -1.81655e-06 -2.41353e-06)             (0.194852 4.2283e-06 -4.22103e-07)
      1.96923             (0.194872 -2.35132e-06 -2.75405e-06)             (0.194853 3.44075e-06 -3.33805e-07)
      1.97692             (0.194873 -2.29062e-06 -2.89888e-06)             (0.194853 2.59102e-06 -2.63278e-07)
      1.98462             (0.194874 -2.87091e-06 -3.28324e-06)             (0.194854 1.4422e-06 -1.98908e-07)
      1.99231             (0.194876 -3.27499e-06 -3.8721e-06)             (0.194854 3.29952e-07 -1.0741e-07)
            2             (0.194877 -4.68222e-06 -4.59306e-06)             (0.194856 -1.11984e-06 -7.35416e-10)
      2.00769             (0.194879 -4.97712e-06 -5.40611e-06)             (0.194857 -2.40787e-06 1.07893e-07)
      2.01538             (0.19488 -6.54284e-06 -5.87214e-06)             (0.194859 -3.95513e-06 2.05411e-07)
      2.02308             (0.194882 -6.99514e-06 -6.4326e-06)             (0.194861 -5.24767e-06 2.84996e-07)
      2.03077             (0.194883 -8.5794e-06 -6.71861e-06)             (0.194864 -6.84702e-06 3.92364e-07)
      2.03846             (0.194885 -8.95742e-06 -6.78996e-06)             (0.194866 -8.17892e-06 5.7772e-07)
      2.04615             (0.194885 -9.71737e-06 -6.77309e-06)             (0.194869 -9.70172e-06 7.79596e-07)
      2.05385             (0.194886 -9.29042e-06 -6.66198e-06)             (0.194871 -1.08516e-05 9.70383e-07)
      2.06154             (0.194886 -9.39991e-06 -6.3952e-06)             (0.194875 -1.21057e-05 1.15396e-06)
      2.06923             (0.194887 -8.46696e-06 -5.93702e-06)             (0.194878 -1.296e-05 1.29652e-06)
      2.07692             (0.194887 -7.87433e-06 -5.3354e-06)             (0.194881 -1.36712e-05 1.37557e-06)
      2.08462             (0.194887 -6.55279e-06 -4.79948e-06)             (0.194884 -1.39593e-05 1.37456e-06)
      2.09231             (0.194887 -5.43316e-06 -4.35327e-06)             (0.194887 -1.39089e-05 1.2644e-06)
          2.1             (0.194887 -3.42955e-06 -3.81045e-06)             (0.194889 -1.33319e-05 1.03577e-06)
      2.10769             (0.194888 -2.0946e-06 -3.23606e-06)             (0.194891 -1.24557e-05 6.81026e-07)
      2.11538             (0.194889 1.60181e-07 -2.6703e-06)             (0.194892 -1.08522e-05 2.01028e-07)
      2.12308             (0.194889 1.43118e-06 -1.99182e-06)             (0.194894 -9.14816e-06 -3.5711e-07)
      2.13077             (0.19489 3.71288e-06 -1.26913e-06)             (0.194894 -6.74456e-06 -9.75886e-07)
      2.13846             (0.194891 5.36189e-06 -4.11293e-07)             (0.194895 -4.39485e-06 -1.61315e-06)
      2.14615             (0.194892 7.50022e-06 4.19403e-07)             (0.194894 -1.60853e-06 -2.2353e-06)
      2.15385             (0.194893 8.42684e-06 1.19613e-06)             (0.194893 9.63254e-07 -2.80543e-06)
      2.16154             (0.194895 1.03501e-05 2.08819e-06)             (0.194892 3.71949e-06 -3.27785e-06)
      2.16923             (0.194896 1.1324e-05 2.76653e-06)             (0.19489 6.05724e-06 -3.61321e-06)
      2.17692             (0.194898 1.23382e-05 3.17615e-06)             (0.194889 8.22394e-06 -3.79647e-06)
      2.18462             (0.194899 1.20417e-05 3.33123e-06)             (0.194887 9.85063e-06 -3.81603e-06)
      2.19231             (0.194901 1.20792e-05 3.17485e-06)             (0.194885 1.12438e-05 -3.64737e-06)
          2.2             (0.194903 1.06031e-05 2.70316e-06)             (0.194884 1.19355e-05 -3.30639e-06)
      2.20769             (0.194904 9.48315e-06 1.83641e-06)             (0.194882 1.22664e-05 -2.78068e-06)
      2.21538             (0.194906 7.53765e-06 7.72924e-07)             (0.194882 1.18799e-05 -2.07814e-06)
      2.22308             (0.194908 5.8466e-06 -3.50133e-07)             (0.194881 1.12609e-05 -1.22675e-06)
      2.23077             (0.194911 3.45708e-06 -1.30031e-06)             (0.194881 9.88322e-06 -2.57801e-07)
      2.23846             (0.194913 1.94625e-06 -2.04628e-06)             (0.194881 8.4141e-06 7.89402e-07)
      2.24615             (0.194915 -3.71706e-07 -2.78603e-06)             (0.194882 6.35203e-06 1.87396e-06)
      2.25385             (0.194916 -1.49525e-06 -3.49508e-06)             (0.194882 4.31769e-06 2.95794e-06)
      2.26154             (0.194917 -3.69956e-06 -4.24459e-06)             (0.194884 1.94958e-06 4.00433e-06)
      2.26923             (0.194918 -4.51189e-06 -4.87797e-06)             (0.194886 -1.73278e-07 4.77434e-06)
      2.27692             (0.194918 -6.10703e-06 -5.21815e-06)             (0.194888 -2.28978e-06 5.53225e-06)
      2.28462             (0.194918 -6.63141e-06 -5.31724e-06)             (0.19489 -3.99667e-06 6.3632e-06)
      2.29231             (0.194917 -7.54244e-06 -5.24114e-06)             (0.194892 -5.46868e-06 6.97636e-06)
          2.3             (0.194916 -7.47982e-06 -5.00957e-06)             (0.194894 -6.25211e-06 7.35757e-06)
      2.30769             (0.194914 -7.68907e-06 -4.6139e-06)             (0.194896 -6.6959e-06 7.37416e-06)
      2.31538             (0.194913 -6.98725e-06 -4.18044e-06)             (0.194896 -6.33912e-06 7.00788e-06)
      2.32308             (0.194911 -6.62493e-06 -3.74798e-06)             (0.194897 -5.66172e-06 6.27643e-06)
      2.33077             (0.194909 -5.40527e-06 -3.31883e-06)             (0.194896 -4.26618e-06 5.23006e-06)
      2.33846             (0.194907 -4.44467e-06 -2.82e-06)             (0.194896 -2.75047e-06 3.95474e-06)
      2.34615             (0.194905 -2.3426e-06 -1.97454e-06)             (0.194894 -7.01671e-07 2.53209e-06)
      2.35385             (0.194904 -1.56023e-06 -1.01605e-06)             (0.194892 1.11547e-06 1.05306e-06)
      2.36154             (0.194903 3.17714e-07 -3.06145e-07)             (0.194889 3.07671e-06 -3.52327e-07)
      2.36923             (0.194903 1.00848e-06 2.56227e-07)             (0.194887 4.5461e-06 -1.60792e-06)
      2.37692             (0.194903 2.23186e-06 6.83768e-07)             (0.194885 5.72131e-06 -2.62445e-06)
      2.38462             (0.194904 2.65101e-06 9.07106e-07)             (0.194883 6.26402e-06 -3.20394e-06)
      2.39231             (0.194906 3.17204e-06 9.21058e-07)             (0.194881 6.35777e-06 -3.40705e-06)
          2.4             (0.194907 2.68595e-06 7.35374e-07)             (0.194881 5.73194e-06 -3.31219e-06)
      2.40769             (0.194909 2.6691e-06 2.77949e-07)             (0.194881 4.77844e-06 -2.8165e-06)
      2.41538             (0.194912 1.51073e-06 -3.96015e-07)             (0.194883 3.23519e-06 -1.9667e-06)
      2.42308             (0.194914 9.65156e-07 -1.3312e-06)             (0.194884 1.6705e-06 -7.96558e-07)
      2.43077             (0.194917 -2.94153e-07 -2.18254e-06)             (0.194888 -3.27208e-07 6.72973e-07)
      2.43846             (0.19492 -4.55605e-07 -2.61708e-06)             (0.194892 -1.98223e-06 2.32442e-06)
      2.44615             (0.194922 -8.08273e-07 -2.7198e-06)             (0.194897 -3.67457e-06 4.09313e-06)
      2.45385             (0.194924 1.07155e-07 -2.59818e-06)             (0.194903 -4.69785e-06 5.92266e-06)
      2.46154             (0.194925 3.64126e-07 -2.41343e-06)             (0.194909 -5.4429e-06 7.63699e-06)
      2.46923             (0.194926 1.62436e-06 -1.9764e-06)             (0.194914 -5.38845e-06 9.14879e-06)
      2.47692             (0.194927 2.42938e-06 -1.37384e-06)             (0.19492 -4.91581e-06 1.03045e-05)
      2.48462             (0.194928 4.09869e-06 -7.35462e-07)             (0.194925 -3.60994e-06 1.09755e-05)
      2.49231             (0.194928 5.25584e-06 -9.22476e-08)             (0.19493 -1.91752e-06 1.11431e-05)
          2.5             (0.194929 7.12225e-06 2.7621e-07)             (0.194933 3.77771e-07 1.07566e-05)
      2.50769             (0.194928 7.87384e-06 7.19168e-07)             (0.194936 2.7208e-06 9.852e-06)
      2.51538             (0.194928 9.52703e-06 1.23982e-06)             (0.194938 5.28647e-06 8.45377e-06)
      2.52308             (0.194928 9.77399e-06 1.45588e-06)             (0.194938 7.5214e-06 6.62735e-06)
      2.53077             (0.194928 1.03e-05 1.54322e-06)             (0.194938 9.61844e-06 4.48244e-06)
      2.53846             (0.194927 9.3392e-06 1.40208e-06)             (0.194937 1.09071e-05 2.17825e-06)
      2.54615             (0.194926 8.69659e-06 1.05295e-06)             (0.194934 1.16845e-05 -1.24854e-07)
      2.55385             (0.194926 6.53325e-06 6.27506e-07)             (0.194933 1.12969e-05 -2.27369e-06)
      2.56154             (0.194926 4.70229e-06 9.80075e-08)             (0.19493 1.03601e-05 -4.22238e-06)
      2.56923             (0.194925 1.63397e-06 -3.6435e-07)             (0.194929 8.36187e-06 -5.91712e-06)
      2.57692             (0.194925 -1.14185e-06 -8.25416e-07)             (0.194927 5.8894e-06 -7.25071e-06)
      2.58462             (0.194926 -4.52736e-06 -1.22531e-06)             (0.194926 2.73115e-06 -8.16611e-06)
      2.59231             (0.194926 -6.87455e-06 -1.64714e-06)             (0.194926 -5.49419e-07 -8.65395e-06)
          2.6             (0.194926 -9.35508e-06 -2.04872e-06)             (0.194926 -4.04312e-06 -8.74748e-06)
      2.60769             (0.194927 -1.04136e-05 -1.93429e-06)             (0.194927 -7.14732e-06 -8.48918e-06)
      2.61538             (0.194927 -1.144e-05 -1.45339e-06)             (0.194929 -9.93876e-06 -7.96683e-06)
      2.62308             (0.194928 -1.05991e-05 -8.56713e-07)             (0.194931 -1.17883e-05 -7.24956e-06)
      2.63077             (0.194928 -9.84553e-06 -2.19127e-07)             (0.194934 -1.30231e-05 -6.37337e-06)
      2.63846             (0.194929 -7.31373e-06 4.44577e-07)             (0.194936 -1.30334e-05 -5.46011e-06)
      2.64615             (0.194929 -5.03359e-06 1.11016e-06)             (0.194938 -1.23498e-05 -4.6372e-06)
      2.65385             (0.19493 -1.48806e-06 1.88533e-06)             (0.194939 -1.03029e-05 -3.94523e-06)
      2.66154             (0.194931 1.11995e-06 2.60271e-06)             (0.19494 -7.95933e-06 -3.41594e-06)
      2.66923             (0.194932 4.08129e-06 3.04163e-06)             (0.194939 -5.0532e-06 -3.07048e-06)
      2.67692             (0.194933 5.64841e-06 3.19239e-06)             (0.194938 -2.11077e-06 -2.89221e-06)
      2.68462             (0.194934 7.48591e-06 2.99345e-06)             (0.194936 9.25775e-07 -2.87757e-06)
      2.69231             (0.194936 7.90958e-06 2.60713e-06)             (0.194934 3.56649e-06 -2.98136e-06)
          2.7             (0.194937 8.07312e-06 2.09196e-06)             (0.194932 5.79822e-06 -3.11738e-06)
      2.70769             (0.194938 6.58328e-06 1.4268e-06)             (0.19493 7.19603e-06 -3.23577e-06)
      2.71538             (0.19494 5.11523e-06 5.88011e-07)             (0.194928 7.99396e-06 -3.27785e-06)
      2.72308             (0.194941 2.49723e-06 -4.0951e-07)             (0.194927 7.72513e-06 -3.15999e-06)
      2.73077             (0.194942 5.20514e-07 -1.41318e-06)             (0.194926 6.97291e-06 -2.84138e-06)
      2.73846             (0.194942 -2.23886e-06 -2.35093e-06)             (0.194927 5.34482e-06 -2.32048e-06)
      2.74615             (0.194943 -3.52063e-06 -3.28357e-06)             (0.194928 3.64526e-06 -1.5659e-06)
      2.75385             (0.194942 -4.83449e-06 -4.2683e-06)             (0.194931 1.45858e-06 -6.06321e-07)
      2.76154             (0.194942 -4.27571e-06 -4.88165e-06)             (0.194933 -3.4247e-07 4.90582e-07)
      2.76923             (0.194941 -3.74848e-06 -4.92793e-06)             (0.194936 -2.09686e-06 1.70062e-06)
      2.77692             (0.194939 -1.40757e-06 -4.73192e-06)             (0.194938 -3.17892e-06 2.97911e-06)
      2.78462             (0.194938 7.12222e-07 -4.2892e-06)             (0.19494 -3.78362e-06 4.23375e-06)
      2.79231             (0.194936 3.98992e-06 -3.72911e-06)             (0.194942 -3.52238e-06 5.40336e-06)
          2.8             (0.194935 6.55841e-06 -3.10244e-06)             (0.194942 -2.77299e-06 6.4391e-06)
      2.80769             (0.194934 9.39968e-06 -2.63576e-06)             (0.194941 -1.22422e-06 7.26269e-06)
      2.81538             (0.194934 1.12215e-05 -2.16783e-06)             (0.19494 6.55696e-07 7.83416e-06)
      2.82308             (0.194935 1.3129e-05 -1.51798e-06)             (0.194937 2.9036e-06 8.14311e-06)
      2.83077             (0.194935 1.35574e-05 -1.0186e-06)             (0.194933 4.92003e-06 8.16545e-06)
      2.83846             (0.194937 1.37454e-05 -7.11707e-07)             (0.194929 6.97893e-06 7.91288e-06)
      2.84615             (0.194939 1.19192e-05 -6.99104e-07)             (0.194924 8.33312e-06 7.43264e-06)
      2.85385             (0.194941 1.00013e-05 -8.73591e-07)             (0.19492 9.41752e-06 6.77039e-06)
      2.86154             (0.194943 6.32198e-06 -1.03966e-06)             (0.194917 9.51562e-06 5.9765e-06)
      2.86923             (0.194945 3.03025e-06 -1.15889e-06)             (0.194913 9.29783e-06 5.09362e-06)
      2.87692             (0.194947 -1.42298e-06 -1.25694e-06)             (0.194913 8.21163e-06 4.20033e-06)
      2.88462             (0.194947 -4.97014e-06 -1.32748e-06)             (0.194912 6.83045e-06 3.34807e-06)
      2.89231             (0.194948 -8.77266e-06 -1.44936e-06)             (0.194915 4.96763e-06 2.57218e-06)
          2.9             (0.194947 -1.09665e-05 -1.34462e-06)             (0.194918 3.02838e-06 1.91988e-06)
      2.90769             (0.194946 -1.31384e-05 -6.4299e-07)             (0.194923 9.9936e-07 1.35694e-06)
      2.91538             (0.194945 -1.33093e-05 3.56429e-07)             (0.194928 -6.93524e-07 8.60304e-07)
      2.92308             (0.194943 -1.29767e-05 1.3832e-06)             (0.194935 -2.32815e-06 4.35225e-07)
      2.93077             (0.19494 -1.08396e-05 2.20991e-06)             (0.19494 -3.38047e-06 1.01323e-07)
      2.93846             (0.194938 -8.3313e-06 2.84327e-06)             (0.194947 -4.32545e-06 -2.02625e-07)
      2.94615             (0.194936 -4.44535e-06 3.31294e-06)             (0.194951 -4.63335e-06 -4.65697e-07)
      2.95385             (0.194934 -8.10436e-07 3.43997e-06)             (0.194955 -4.97895e-06 -5.44182e-07)
      2.96154             (0.194933 3.62112e-06 3.03217e-06)             (0.194957 -4.98221e-06 -6.11287e-07)
      2.96923             (0.194933 6.76171e-06 2.3376e-06)             (0.194959 -5.18372e-06 -6.94013e-07)
      2.97692             (0.194933 1.03581e-05 1.5818e-06)             (0.194958 -5.15007e-06 -6.62756e-07)
      2.98462             (0.194933 1.20176e-05 5.6558e-07)             (0.194956 -5.41675e-06 -5.53899e-07)
      2.99231             (0.194934 1.33945e-05 -6.54688e-07)             (0.194954 -5.61756e-06 -3.54844e-07)
            3             (0.194935 1.26591e-05 -1.94337e-06)             (0.194951 -6.0501e-06 -9.18041e-08)
      3.00769             (0.194936 1.13003e-05 -3.15195e-06)             (0.194948 -6.24676e-06 2.1641e-07)
      3.01538             (0.194938 8.22442e-06 -4.17753e-06)             (0.194945 -6.46482e-06 5.18485e-07)
      3.02308             (0.194939 5.15545e-06 -4.87016e-06)             (0.194943 -6.23605e-06 7.48996e-07)
      3.03077             (0.194939 1.05808e-06 -5.23054e-06)             (0.194942 -5.79015e-06 8.91617e-07)
      3.03846             (0.19494 -2.28476e-06 -5.24294e-06)             (0.194941 -4.62196e-06 7.23544e-07)
      3.04615             (0.19494 -5.35098e-06 -4.78112e-06)             (0.194942 -3.06003e-06 4.59357e-07)
      3.05385             (0.194939 -6.68883e-06 -4.01454e-06)             (0.194943 -6.67579e-07 1.72128e-07)
      3.06154             (0.194939 -8.27251e-06 -2.99412e-06)             (0.194945 1.86869e-06 -3.8508e-07)
      3.06923             (0.194938 -7.75782e-06 -1.86535e-06)             (0.194946 5.0331e-06 -1.07938e-06)
      3.07692             (0.194937 -6.93536e-06 -7.60235e-07)             (0.194948 7.9658e-06 -1.924e-06)
      3.08462             (0.194937 -4.23136e-06 1.75634e-07)             (0.194948 1.09147e-05 -2.87492e-06)
      3.09231             (0.194937 -1.73918e-06 8.11836e-07)             (0.194949 1.31573e-05 -3.79806e-06)
          3.1             (0.194937 1.66073e-06 1.09066e-06)             (0.194948 1.4821e-05 -4.58024e-06)
      3.10769             (0.194938 4.07691e-06 1.15682e-06)             (0.194948 1.52951e-05 -5.09502e-06)
      3.11538             (0.194941 6.99937e-06 7.90374e-07)             (0.194946 1.48115e-05 -5.27075e-06)
      3.12308             (0.194943 8.34799e-06 9.56467e-08)             (0.194944 1.29526e-05 -5.07704e-06)
      3.13077             (0.194947 9.35626e-06 -5.70189e-07)             (0.194943 1.021e-05 -4.45335e-06)
      3.13846             (0.194951 8.52328e-06 -1.47229e-06)             (0.194942 6.39674e-06 -3.48709e-06)
      3.14615             (0.194955 7.51345e-06 -2.36774e-06)             (0.194942 2.26243e-06 -2.10851e-06)
      3.15385             (0.19496 5.06802e-06 -3.09767e-06)             (0.194943 -2.21766e-06 -3.14045e-07)
      3.16154             (0.194964 2.88244e-06 -3.51364e-06)             (0.194946 -6.22747e-06 1.64557e-06)
      3.16923             (0.194967 -5.57495e-08 -3.766e-06)             (0.19495 -9.76046e-06 3.67053e-06)
      3.17692             (0.19497 -1.87503e-06 -3.52697e-06)             (0.194954 -1.20357e-05 5.64043e-06)
      3.18462             (0.194972 -3.84915e-06 -2.63719e-06)             (0.194961 -1.32537e-05 7.36672e-06)
      3.19231             (0.194973 -4.26054e-06 -1.55291e-06)             (0.194967 -1.284e-05 8.72999e-06)
          3.2             (0.194973 -4.51235e-06 -2.35914e-07)             (0.194974 -1.12836e-05 9.59164e-06)
      3.20769             (0.194973 -3.26777e-06 1.08138e-06)             (0.19498 -8.32787e-06 9.81973e-06)
      3.21538             (0.194971 -2.33508e-06 2.28283e-06)             (0.194985 -4.67303e-06 9.4986e-06)
      3.22308             (0.194969 -2.66611e-07 2.94415e-06)             (0.194988 -1.99104e-07 8.63704e-06)
      3.23077             (0.194967 9.67458e-07 3.22542e-06)             (0.194991 4.05232e-06 7.23193e-06)
      3.23846             (0.194964 2.69375e-06 3.10195e-06)             (0.194991 8.22848e-06 5.47389e-06)
      3.24615             (0.194961 2.89785e-06 2.48522e-06)             (0.19499 1.15752e-05 3.4553e-06)
      3.25385             (0.194958 3.61528e-06 1.66295e-06)             (0.194987 1.4131e-05 1.38109e-06)
      3.26154             (0.194954 3.06507e-06 5.40216e-07)             (0.194984 1.53049e-05 -5.29824e-07)
      3.26923             (0.19495 2.56131e-06 -7.79278e-07)             (0.194979 1.54263e-05 -2.2411e-06)
      3.27692             (0.194946 9.65215e-07 -2.18594e-06)             (0.194975 1.41948e-05 -3.7707e-06)
      3.28462             (0.194942 8.99699e-09 -3.42199e-06)             (0.19497 1.21954e-05 -4.90652e-06)
      3.29231             (0.194937 -1.8762e-06 -4.41962e-06)             (0.194967 9.12923e-06 -5.51878e-06)
          3.3             (0.194933 -2.75569e-06 -5.16566e-06)             (0.194964 5.95241e-06 -5.77541e-06)
      3.30769             (0.194928 -3.71534e-06 -5.52137e-06)             (0.194963 2.52361e-06 -5.72574e-06)
      3.31538             (0.194925 -3.27106e-06 -5.04894e-06)             (0.194963 -5.06211e-07 -5.43126e-06)
      3.32308             (0.194922 -3.21151e-06 -4.32568e-06)             (0.194964 -3.14731e-06 -5.03032e-06)
      3.33077             (0.19492 -1.77071e-06 -3.30343e-06)             (0.194964 -4.8417e-06 -4.66294e-06)
      3.33846             (0.194919 -9.23295e-07 -1.78683e-06)             (0.194967 -6.07342e-06 -4.36331e-06)
      3.34615             (0.19492 1.08424e-06 -5.78806e-07)             (0.194968 -6.41594e-06 -4.15507e-06)
      3.35385             (0.194922 2.26169e-06 3.99768e-07)             (0.194971 -6.44826e-06 -4.07156e-06)
      3.36154             (0.194927 3.96632e-06 1.2085e-06)             (0.194973 -5.90064e-06 -4.10414e-06)
      3.36923             (0.194932 4.44499e-06 1.65718e-06)             (0.194975 -5.40409e-06 -4.19244e-06)
      3.37692             (0.194939 5.12082e-06 1.63197e-06)             (0.194977 -4.78076e-06 -4.27795e-06)
      3.38462             (0.194948 4.29759e-06 1.08472e-06)             (0.19498 -4.43931e-06 -4.28459e-06)
      3.39231             (0.194956 3.73844e-06 1.51585e-07)             (0.194982 -3.97848e-06 -4.11137e-06)
          3.4             (0.194965 1.74138e-06 -9.59932e-07)             (0.194985 -3.94118e-06 -3.80546e-06)
      3.40769             (0.194973 2.21166e-07 -2.1267e-06)             (0.194987 -3.67853e-06 -3.2727e-06)
      3.41538             (0.194981 -2.02834e-06 -3.32718e-06)             (0.194991 -3.66175e-06 -2.28219e-06)
      3.42308             (0.194987 -3.36002e-06 -4.13859e-06)             (0.194994 -3.23109e-06 -9.42155e-07)
      3.43077             (0.194992 -5.10127e-06 -4.56392e-06)             (0.194997 -2.81294e-06 6.23598e-07)
      3.43846             (0.194995 -5.60454e-06 -4.30142e-06)             (0.195 -2.0436e-06 2.31257e-06)
      3.44615             (0.194996 -6.08344e-06 -3.21073e-06)             (0.195002 -1.04603e-06 3.98243e-06)
      3.45385             (0.194996 -5.02958e-06 -1.8235e-06)             (0.195003 5.37376e-07 5.60423e-06)
      3.46154             (0.194994 -4.19034e-06 -2.46633e-07)             (0.195003 2.10217e-06 6.95036e-06)
      3.46923             (0.194991 -1.94822e-06 1.2431e-06)             (0.195 3.79602e-06 7.9039e-06)
      3.47692             (0.194988 -2.65142e-07 2.59121e-06)             (0.194996 4.97615e-06 8.37711e-06)
      3.48462             (0.194984 2.38692e-06 3.8044e-06)             (0.19499 6.00042e-06 8.23744e-06)
      3.49231             (0.19498 4.04363e-06 4.5264e-06)             (0.194983 6.09301e-06 7.50912e-06)
          3.5             (0.194977 6.50804e-06 4.66532e-06)             (0.194974 5.81019e-06 6.22031e-06)
      3.50769             (0.194974 7.42138e-06 4.41135e-06)             (0.194966 4.53277e-06 4.44219e-06)
      3.51538             (0.194971 8.31919e-06 3.72399e-06)             (0.194957 2.83978e-06 2.28816e-06)
      3.52308             (0.194968 7.92032e-06 2.74264e-06)             (0.19495 6.21329e-07 -7.46419e-08)
      3.53077             (0.194965 7.42374e-06 1.59512e-06)             (0.194944 -1.56458e-06 -2.47802e-06)
      3.53846             (0.194963 5.63027e-06 3.92383e-07)             (0.19494 -3.81358e-06 -4.69992e-06)
      3.54615             (0.19496 4.4609e-06 -7.53084e-07)             (0.194938 -5.44406e-06 -6.56416e-06)
      3.55385             (0.194958 2.21863e-06 -1.68562e-06)             (0.194939 -6.6004e-06 -7.8672e-06)
      3.56154             (0.194955 8.39873e-07 -2.30101e-06)             (0.194941 -6.63852e-06 -8.50716e-06)
      3.56923             (0.194953 -1.00248e-06 -2.64716e-06)             (0.194945 -5.95147e-06 -8.38568e-06)
      3.57692             (0.19495 -1.63642e-06 -2.72245e-06)             (0.19495 -4.12202e-06 -7.40125e-06)
      3.58462             (0.194948 -2.58948e-06 -2.17556e-06)             (0.194955 -1.80741e-06 -5.68187e-06)
      3.59231             (0.194946 -2.0293e-06 -1.45591e-06)             (0.194959 1.2942e-06 -3.3682e-06)
          3.6             (0.194945 -1.99364e-06 -1.10567e-06)             (0.194962 4.25237e-06 -6.32598e-07)
      3.60769             (0.194944 -8.64442e-07 -1.0002e-06)             (0.194962 7.13989e-06 2.25289e-06)
      3.61538             (0.194944 -1.46504e-07 -1.08715e-06)             (0.194961 9.21916e-06 5.10235e-06)
      3.62308             (0.194945 8.61808e-07 -1.22071e-06)             (0.194957 1.05981e-05 7.64488e-06)
      3.63077             (0.194946 1.30037e-06 -1.43145e-06)             (0.194951 1.07812e-05 9.61122e-06)
      3.63846             (0.194949 2.02692e-06 -2.06405e-06)             (0.194944 1.00957e-05 1.08282e-05)
      3.64615             (0.194952 1.49071e-06 -2.89138e-06)             (0.194937 8.19175e-06 1.11077e-05)
      3.65385             (0.194956 1.64154e-06 -3.18537e-06)             (0.194929 5.57762e-06 1.04289e-05)
      3.66154             (0.19496 6.74822e-07 -3.17635e-06)             (0.194924 2.31762e-06 8.84418e-06)
      3.66923             (0.194963 4.6899e-07 -3.16658e-06)             (0.194919 -7.40669e-07 6.46623e-06)
      3.67692             (0.194966 -4.47673e-07 -3.36034e-06)             (0.194918 -3.66626e-06 3.50968e-06)
      3.68462             (0.194969 -2.0674e-07 -3.22161e-06)             (0.194918 -5.52586e-06 2.5083e-07)
      3.69231             (0.19497 -7.69848e-07 -2.30049e-06)             (0.194922 -6.64118e-06 -3.0048e-06)
          3.7             (0.194971 5.9726e-08 -1.14709e-06)             (0.194928 -6.28405e-06 -5.92745e-06)
      3.70769             (0.194971 8.27524e-08 1.73239e-07)             (0.194936 -5.02521e-06 -8.21938e-06)
      3.71538             (0.19497 1.03653e-06 1.40665e-06)             (0.194944 -2.58134e-06 -9.67228e-06)
      3.72308             (0.194969 1.56784e-06 2.4206e-06)             (0.194953 3.19312e-07 -1.0169e-05)
      3.73077             (0.194967 2.92552e-06 3.27787e-06)             (0.194961 3.64872e-06 -9.67719e-06)
      3.73846             (0.194965 3.46007e-06 3.66829e-06)             (0.194967 6.40199e-06 -8.26959e-06)
      3.74615             (0.194962 4.05057e-06 3.96397e-06)             (0.194971 8.59945e-06 -6.12761e-06)
      3.75385             (0.19496 3.43432e-06 3.96312e-06)             (0.194974 9.49739e-06 -3.53807e-06)
      3.76154             (0.194959 3.45978e-06 3.29407e-06)             (0.194973 9.29105e-06 -9.55743e-07)
      3.76923             (0.194958 2.0909e-06 2.40189e-06)             (0.194972 7.51444e-06 1.48372e-06)
      3.77692             (0.194957 1.16042e-06 1.32888e-06)             (0.194968 4.65104e-06 3.6417e-06)
      3.78462             (0.194957 -1.18737e-06 3.83208e-08)             (0.194965 5.68681e-07 5.15318e-06)
      3.79231             (0.194957 -2.72645e-06 -1.3291e-06)             (0.19496 -3.73211e-06 5.8858e-06)