# Probe 0 (0 0 0.0376992)
# Probe 1 (0 0.24 0.0376992)
#       Probe             0             1
#        Time
