# Probe 0 (0 0 0.0376992)
# Probe 1 (0 0.24 0.0376992)
#       Probe             0             1
#        Time
  1.19999e-06             (0.195 -7.64194e-07 -3.88817e-10)             (0.195001 -2.01988e-07 4.01975e-10)
  2.63996e-06             (0.311999 -5.52395e-07 1.11189e-08)             (0.311999 -1.25337e-07 3.88398e-10)
   4.3679e-06             (0.2418 -1.0833e-07 5.18957e-09)             (0.2418 -9.60946e-09 1.04636e-09)
  6.44138e-06             (0.166549 1.11705e-06 -1.68579e-08)             (0.166548 2.78991e-07 -1.08597e-10)
  8.92952e-06             (0.179908 -1.2106e-07 8.4915e-09)             (0.179908 -8.43798e-08 2.35155e-09)
  1.19152e-05             (0.183931 -6.31233e-07 2.91003e-08)             (0.183931 -2.32416e-07 4.63849e-09)
   1.5498e-05             (0.18561 1.04928e-07 -2.24875e-08)             (0.18561 3.78497e-09 3.44492e-09)
  1.97973e-05             (0.186708 4.32654e-07 -8.59357e-08)             (0.186707 1.10521e-07 2.84456e-08)
  2.49562e-05             (0.187542 -1.31369e-07 -5.49939e-08)             (0.187542 -4.42326e-08 3.5082e-08)
  3.11466e-05             (0.18821 -1.99414e-07 1.65756e-08)             (0.18821 -2.66854e-08 3.26565e-09)
  3.85748e-05             (0.188759 1.42167e-07 -5.76083e-10)             (0.188759 4.61212e-08 1.19502e-08)
   4.7488e-05             (0.18922 1.2188e-07 -2.44668e-08)             (0.18922 1.71925e-08 1.62653e-08)
  5.81827e-05             (0.189614 -4.35774e-08 1.62224e-08)             (0.189614 -1.34428e-08 1.61058e-09)
  7.10155e-05             (0.189955 -3.70461e-08 3.41652e-08)             (0.189955 1.42301e-08 -8.06185e-10)
  8.64129e-05             (0.190253 3.54196e-08 2.25465e-08)             (0.190253 2.47682e-08 -6.12572e-10)
  0.000104888             (0.190516 5.46901e-09 2.61433e-08)             (0.190516 3.47197e-09 -4.00421e-09)
  0.000127057             (0.190751 -5.04391e-09 2.27008e-08)             (0.190751 -4.63126e-09 -6.04855e-09)
  0.000153655             (0.190961 -1.82278e-08 3.23927e-08)             (0.190961 -7.07395e-10 -5.56763e-09)
  0.000185565             (0.19115 -4.83961e-09 3.9792e-08)             (0.19115 4.68545e-09 -3.42227e-09)
  0.000223852             (0.191322 -2.77018e-08 2.86629e-08)             (0.191322 3.00544e-09 -2.82054e-09)
  0.000269789             (0.191479 -1.64881e-08 2.9874e-08)             (0.191479 4.21909e-09 -2.5302e-09)
  0.000324889             (0.191622 1.60317e-09 3.73951e-08)             (0.191622 8.63562e-09 -3.11419e-09)
  0.000390986             (0.191754 3.47347e-08 3.66801e-08)             (0.191754 1.16299e-08 -3.6912e-09)
  0.000470293             (0.191876 4.60471e-08 3.17259e-08)             (0.191876 1.45645e-08 -3.4463e-09)
  0.000565446             (0.191989 5.1304e-08 4.43939e-08)             (0.191989 1.82071e-08 -3.22598e-09)
  0.000679607             (0.192093 1.03841e-07 7.41731e-08)             (0.192093 2.35632e-08 -2.95648e-09)
  0.000816412             (0.192191 1.97993e-07 1.1335e-07)             (0.192191 2.60345e-08 -2.90169e-09)
  0.000980352             (0.192282 2.48822e-07 1.22073e-07)             (0.192282 3.06689e-08 -2.83192e-09)
   0.00117682             (0.192367 2.37282e-07 1.04882e-07)             (0.192367 3.34618e-08 -2.91153e-09)
   0.00141211             (0.192447 1.94462e-07 9.77688e-08)             (0.192447 3.70666e-08 -3.00324e-09)
   0.00169379             (0.192522 1.82243e-07 9.7721e-08)             (0.192522 3.94887e-08 -2.78812e-09)
   0.00203161             (0.192593 1.57924e-07 9.91503e-08)             (0.192593 4.27841e-08 -2.73811e-09)
   0.00243644             (0.19266 -8.27785e-09 8.0603e-08)             (0.19266 4.31695e-08 -2.60924e-09)
   0.00292183             (0.192724 -3.49512e-07 4.74158e-08)             (0.192724 4.94726e-08 -2.74181e-09)
   0.00350314             (0.192784 -4.20119e-07 7.43531e-08)             (0.192784 4.9264e-08 -2.64242e-09)
   0.00419736             (0.192841 -4.02497e-07 1.44057e-07)             (0.192842 5.7936e-08 -2.62966e-09)
   0.00502325             (0.192896 -5.39384e-07 9.68646e-08)             (0.192896 4.99731e-08 -2.52251e-09)
   0.00601259             (0.192948 -3.48885e-07 -3.79786e-08)             (0.192948 7.5018e-08 -2.32714e-09)
   0.00718743             (0.192998 -7.08126e-07 -1.15262e-07)             (0.192998 5.24743e-08 -1.98996e-09)
   0.00859368             (0.193046 -3.83774e-07 -1.92692e-07)             (0.193046 1.18069e-07 -2.73465e-09)
    0.0102556             (0.193091 -6.47216e-07 -1.99784e-07)             (0.193092 3.80801e-08 -1.91853e-09)
    0.0122066             (0.193135 -3.78037e-07 -1.45488e-07)             (0.193135 1.33297e-07 -1.70986e-09)
    0.0145169             (0.193178 -4.89673e-07 -1.96611e-07)             (0.193178 8.22485e-08 -1.36714e-09)
    0.0172745             (0.19322 -9.20087e-07 -1.80989e-08)             (0.19322 1.31812e-07 -2.06343e-09)
    0.0204562             (0.193259 -7.42491e-07 -1.7404e-07)             (0.19326 1.18085e-07 2.4008e-09)
     0.024244             (0.193299 -8.11939e-07 -4.4264e-07)             (0.193299 1.8584e-07 9.60855e-09)
    0.0287002             (0.193337 -4.67266e-07 -2.27755e-07)             (0.193337 1.71806e-07 1.13182e-08)
    0.0337931             (0.193376 -1.00072e-06 1.1406e-07)             (0.193375 2.08036e-07 1.17511e-08)
    0.0393103             (0.193414 -1.12629e-06 6.51347e-07)             (0.19341 2.39917e-07 2.2626e-08)
    0.0453793             (0.193448 -1.6633e-06 1.78553e-06)             (0.193445 2.62861e-07 3.38536e-08)
    0.0522069             (0.193481 -2.90972e-07 2.14586e-06)             (0.193479 4.15543e-07 4.35843e-08)
    0.0590345             (0.193511 9.65333e-07 1.58065e-06)             (0.193512 2.19298e-07 5.91441e-08)
    0.0658621             (0.19354 1.36872e-06 1.82627e-06)             (0.193542 5.07329e-07 7.29736e-08)
    0.0726896             (0.193566 1.83427e-06 1.95332e-06)             (0.193571 4.87686e-07 8.20113e-08)
    0.0795172             (0.193594 -7.94267e-07 2.1848e-06)             (0.193601 3.42935e-07 9.04309e-08)
    0.0863448             (0.193622 1.18761e-06 2.088e-06)             (0.193627 8.15269e-07 1.00186e-07)
    0.0931724             (0.193648 -1.05124e-06 -1.63396e-07)             (0.193655 2.70593e-07 1.08866e-07)
          0.1             (0.193675 -4.28603e-07 -2.66362e-06)             (0.19368 8.00358e-07 1.16414e-07)
     0.107143             (0.193701 -8.3819e-07 -3.27868e-06)             (0.193706 5.61108e-07 1.24073e-07)
     0.114881             (0.193728 -9.24751e-07 -3.81177e-06)             (0.193731 7.14466e-07 1.34271e-07)
     0.122619             (0.193752 -1.97401e-06 -3.41881e-06)             (0.193756 6.40159e-07 1.45371e-07)
     0.130357             (0.193776 -2.24685e-06 -3.10491e-06)             (0.193779 7.6053e-07 1.52616e-07)
     0.138095             (0.193799 -3.03642e-06 -3.54789e-06)             (0.193802 7.34433e-07 1.58629e-07)
     0.145833             (0.193821 -5.59699e-06 -3.27175e-06)             (0.193824 7.21903e-07 1.65364e-07)
     0.153571             (0.193842 -7.77975e-06 -2.66377e-06)             (0.193845 7.80883e-07 1.73421e-07)
      0.16131             (0.193863 -6.58985e-06 -2.21175e-06)             (0.193865 8.26984e-07 1.83772e-07)
     0.169048             (0.193884 -6.1231e-06 -2.38669e-06)             (0.193886 7.53904e-07 1.91439e-07)
     0.176786             (0.193903 -3.59271e-06 -2.28096e-06)             (0.193905 9.71538e-07 2.02609e-07)
     0.184524             (0.193922 -4.84139e-06 -2.02833e-06)             (0.193924 7.60843e-07 2.10784e-07)
     0.192262             (0.193941 -4.80297e-06 -2.36361e-06)             (0.193942 1.0074e-06 2.1718e-07)
          0.2             (0.193961 -4.71853e-06 -3.36286e-06)             (0.19396 8.62932e-07 2.21006e-07)
     0.207692             (0.193982 -5.1235e-06 -3.83167e-06)             (0.193978 9.63459e-07 2.25249e-07)
     0.215385             (0.194 -5.06665e-06 -3.50569e-06)             (0.193995 8.87698e-07 2.29147e-07)
     0.223077             (0.194015 -5.25885e-06 -3.88936e-06)             (0.194011 1.00422e-06 2.3276e-07)
     0.230769             (0.19403 -6.19838e-06 -4.55672e-06)             (0.194027 8.93671e-07 2.34366e-07)
     0.238462             (0.194044 -5.26984e-06 -4.38972e-06)             (0.194042 1.0222e-06 2.38517e-07)
     0.246154             (0.194058 -4.76952e-06 -4.01864e-06)             (0.194058 9.24825e-07 2.41921e-07)
     0.253846             (0.194073 -2.55208e-06 -4.40565e-06)             (0.194072 1.06726e-06 2.44066e-07)
     0.261538             (0.194086 -2.4352e-06 -4.93281e-06)             (0.194087 9.23807e-07 2.48588e-07)
     0.269231             (0.1941 -1.59484e-06 -5.07543e-06)             (0.194101 1.05506e-06 2.54375e-07)
     0.276923             (0.194113 -2.6442e-06 -6.49053e-06)             (0.194115 9.62107e-07 2.58027e-07)
     0.284615             (0.194126 -2.4114e-06 -8.44049e-06)             (0.194128 1.05352e-06 2.61577e-07)
     0.292308             (0.194138 -2.27757e-06 -9.71179e-06)             (0.194141 9.70352e-07 2.63912e-07)
          0.3             (0.19415 -2.04618e-06 -9.98091e-06)             (0.194153 1.07449e-06 2.67329e-07)
     0.307692             (0.194161 -1.8462e-06 -9.65951e-06)             (0.194166 9.64167e-07 2.70661e-07)
     0.315385             (0.194173 -1.28054e-06 -9.51655e-06)             (0.194178 1.08553e-06 2.73431e-07)
     0.323077             (0.194185 -1.02737e-06 -9.04746e-06)             (0.19419 9.69875e-07 2.75915e-07)
     0.330769             (0.194198 9.19527e-07 -8.21522e-06)             (0.194201 1.08479e-06 2.77976e-07)
     0.338462             (0.19421 3.81661e-06 -7.35981e-06)             (0.194213 9.50583e-07 2.81744e-07)
     0.346154             (0.194221 8.87756e-06 -7.01333e-06)             (0.194224 1.09576e-06 2.85281e-07)
     0.353846             (0.194233 1.08948e-05 -6.31989e-06)             (0.194235 9.76519e-07 2.88323e-07)
     0.361538             (0.194244 1.25571e-05 -5.49967e-06)             (0.194245 1.07939e-06 2.92737e-07)
     0.369231             (0.194255 1.24263e-05 -4.87558e-06)             (0.194256 9.93209e-07 2.94311e-07)
     0.376923             (0.194266 1.25156e-05 -3.24151e-06)             (0.194266 1.07449e-06 2.96591e-07)
     0.384615             (0.194277 1.05688e-05 -1.17509e-06)             (0.194276 1.00287e-06 3.01029e-07)
     0.392308             (0.194288 8.65188e-06 -4.99035e-07)             (0.194286 1.10017e-06 3.01439e-07)
          0.4             (0.194298 7.17074e-06 -3.5994e-07)             (0.194296 9.68983e-07 3.02282e-07)
     0.407692             (0.194308 6.41057e-06 -6.68086e-07)             (0.194304 1.13783e-06 3.0247e-07)
     0.415385             (0.194318 4.88212e-06 -1.01927e-06)             (0.194314 9.72302e-07 3.02426e-07)
     0.423077             (0.194328 4.25154e-06 -1.22918e-06)             (0.194323 1.09751e-06 3.0319e-07)
     0.430769             (0.194337 3.45639e-06 -7.63026e-07)             (0.194332 9.7892e-07 3.00379e-07)
     0.438462             (0.194345 3.94494e-06 3.88921e-07)             (0.19434 1.08332e-06 2.98893e-07)
     0.446154             (0.194353 3.29615e-06 3.81617e-07)             (0.194349 9.76494e-07 3.00021e-07)
     0.453846             (0.194362 3.44247e-06 7.81401e-07)             (0.194357 1.05451e-06 3.00607e-07)
     0.461538             (0.194369 2.38958e-06 2.13499e-06)             (0.194365 9.70485e-07 3.02153e-07)
     0.469231             (0.194377 1.93131e-06 3.22311e-06)             (0.194373 1.05929e-06 3.02827e-07)
     0.476923             (0.194384 1.22143e-06 3.58458e-06)             (0.194381 9.83613e-07 3.03446e-07)
     0.484615             (0.194392 1.36895e-06 3.33377e-06)             (0.194388 1.05789e-06 3.0376e-07)
     0.492308             (0.194401 1.04571e-06 2.7157e-06)             (0.194396 9.80569e-07 3.02836e-07)
          0.5             (0.194411 1.47968e-06 1.65401e-06)             (0.194403 1.09265e-06 3.02229e-07)
     0.507692             (0.194419 1.52186e-06 6.89104e-07)             (0.194411 9.49999e-07 3.00544e-07)
     0.515385             (0.194426 2.38213e-06 2.68398e-07)             (0.194418 1.12552e-06 2.98076e-07)
     0.523077             (0.194431 2.54509e-06 6.16823e-07)             (0.194425 9.71532e-07 2.96978e-07)
     0.530769             (0.194437 3.78338e-06 1.28283e-06)             (0.194431 1.10109e-06 2.94809e-07)
     0.538462             (0.194444 3.66303e-06 1.30968e-06)             (0.194439 9.70484e-07 2.93129e-07)
     0.546154             (0.19445 4.79878e-06 1.26968e-06)             (0.194445 1.09597e-06 2.93133e-07)
     0.553846             (0.194456 4.28819e-06 1.23715e-06)             (0.194452 9.89538e-07 2.952e-07)
     0.561538             (0.194462 4.14249e-06 8.17776e-07)             (0.194458 1.04998e-06 2.95576e-07)
     0.569231             (0.194469 3.73504e-06 1.34333e-06)             (0.194464 9.89633e-07 2.97423e-07)
     0.576923             (0.194475 4.1149e-06 2.06155e-06)             (0.19447 1.04754e-06 3.01627e-07)
     0.584615             (0.194481 3.59546e-06 2.34637e-06)             (0.194477 9.48239e-07 3.05437e-07)
     0.592308             (0.194487 4.16112e-06 2.50976e-06)             (0.194482 1.074e-06 3.10547e-07)
          0.6             (0.194493 3.28883e-06 2.62054e-06)             (0.194489 9.2225e-07 3.15735e-07)
     0.607692             (0.194498 3.12426e-06 3.00463e-06)             (0.194494 1.0601e-06 3.20966e-07)
     0.615385             (0.194503 2.52915e-06 2.89929e-06)             (0.1945 9.18895e-07 3.25402e-07)
     0.623077             (0.194507 3.06337e-06 1.72183e-06)             (0.194505 1.03861e-06 3.28434e-07)
     0.630769             (0.194514 2.65685e-06 1.79671e-07)             (0.194511 9.33869e-07 3.31061e-07)
     0.638462             (0.194522 2.35193e-06 -8.67496e-07)             (0.194516 1.02711e-06 3.30619e-07)
     0.646154             (0.194527 2.10872e-06 -1.56555e-06)             (0.194522 9.38116e-07 3.29038e-07)
     0.653846             (0.194532 2.35954e-06 -2.01777e-06)             (0.194527 1.03487e-06 3.27241e-07)
     0.661538             (0.194536 2.13288e-06 -2.34669e-06)             (0.194532 9.54558e-07 3.25822e-07)
     0.669231             (0.194541 3.45111e-06 -2.77647e-06)             (0.194537 1.03944e-06 3.22758e-07)
     0.676923             (0.194546 3.09155e-06 -3.30152e-06)             (0.194542 9.45496e-07 3.1846e-07)
     0.684615             (0.19455 3.30024e-06 -3.5967e-06)             (0.194547 1.0509e-06 3.14159e-07)
     0.692308             (0.194555 2.39258e-06 -3.64789e-06)             (0.194552 9.22605e-07 3.10402e-07)
          0.7             (0.19456 2.83475e-06 -3.33068e-06)             (0.194557 1.07298e-06 3.05729e-07)
     0.707692             (0.194564 1.68025e-06 -2.75725e-06)             (0.194562 9.04645e-07 3.01417e-07)
     0.715385             (0.194568 1.21201e-06 -2.41424e-06)             (0.194566 1.05832e-06 2.95991e-07)
     0.723077             (0.194573 7.05416e-07 -2.38257e-06)             (0.194571 9.08387e-07 2.91694e-07)
     0.730769             (0.194577 1.25686e-06 -1.46205e-06)             (0.194575 1.03214e-06 2.89154e-07)
     0.738462             (0.194581 8.62832e-07 -2.64438e-07)             (0.19458 9.31899e-07 2.86804e-07)
     0.746154             (0.194584 7.6532e-07 3.66249e-07)             (0.194584 9.92413e-07 2.85342e-07)
     0.753846             (0.194588 -2.69262e-07 1.11094e-06)             (0.194588 9.34728e-07 2.83942e-07)
     0.761538             (0.194592 1.39401e-08 1.70325e-06)             (0.194592 9.99416e-07 2.82392e-07)
     0.769231             (0.194596 -1.40369e-07 2.11457e-06)             (0.194597 9.04305e-07 2.82874e-07)
     0.776923             (0.194601 4.89054e-07 2.5116e-06)             (0.194601 1.01272e-06 2.82504e-07)
     0.784615             (0.194605 -2.69866e-07 2.76169e-06)             (0.194605 9.09235e-07 2.83381e-07)
     0.792308             (0.194609 3.76723e-08 2.92874e-06)             (0.194609 1.00587e-06 2.83595e-07)
          0.8             (0.194614 -9.82415e-08 3.71996e-06)             (0.194613 8.86608e-07 2.85482e-07)
     0.807692             (0.194618 3.0053e-07 4.36071e-06)             (0.194617 1.0138e-06 2.87412e-07)
     0.815385             (0.194622 -2.88255e-07 4.96231e-06)             (0.194621 8.73711e-07 2.88301e-07)
     0.823077             (0.194627 -4.72132e-08 5.82266e-06)             (0.194624 1.02213e-06 2.8846e-07)
     0.830769             (0.194631 -6.38936e-07 6.33052e-06)             (0.194628 8.81975e-07 2.89501e-07)
     0.838462             (0.194635 -6.54133e-07 6.2638e-06)             (0.194632 9.73839e-07 2.90944e-07)
     0.846154             (0.194638 -1.26953e-06 5.81788e-06)             (0.194636 8.99171e-07 2.8959e-07)
     0.853846             (0.194642 -1.28726e-06 5.42788e-06)             (0.194639 9.4947e-07 2.87439e-07)
     0.861538             (0.194645 -1.59631e-06 4.95813e-06)             (0.194643 8.7731e-07 2.86176e-07)
     0.869231             (0.194648 -1.0609e-06 4.54135e-06)             (0.194646 9.69767e-07 2.82098e-07)
     0.876923             (0.194651 -1.11684e-06 3.94978e-06)             (0.19465 8.45538e-07 2.76081e-07)
     0.884615             (0.194654 8.62295e-08 3.16032e-06)             (0.194653 9.9126e-07 2.6881e-07)
     0.892308             (0.194658 -3.08007e-07 2.74812e-06)             (0.194657 8.47895e-07 2.6174e-07)
          0.9             (0.194661 5.79097e-07 2.55519e-06)             (0.194659 9.72122e-07 2.53648e-07)
     0.907692             (0.194664 2.93755e-07 2.38862e-06)             (0.194663 8.29344e-07 2.47021e-07)
     0.915385             (0.194667 1.16633e-07 2.3838e-06)             (0.194666 9.56548e-07 2.40028e-07)
     0.923077             (0.194671 -7.48024e-07 2.49145e-06)             (0.194669 8.30488e-07 2.3478e-07)
     0.930769             (0.194675 -9.39801e-07 2.53928e-06)             (0.194672 9.20362e-07 2.30782e-07)
     0.938462             (0.194678 -1.93153e-06 2.57248e-06)             (0.194676 8.34535e-07 2.25335e-07)
     0.946154             (0.19468 -2.12193e-06 2.61996e-06)             (0.194679 8.94812e-07 2.22864e-07)
     0.953846             (0.194682 -2.77921e-06 2.86479e-06)             (0.194682 8.14114e-07 2.22803e-07)
     0.961538             (0.194684 -2.56784e-06 2.95046e-06)             (0.194684 9.10843e-07 2.23702e-07)
     0.969231             (0.194686 -3.15036e-06 2.94992e-06)             (0.194688 7.88554e-07 2.24116e-07)
     0.976923             (0.194689 -2.72754e-06 2.83108e-06)             (0.19469 9.05038e-07 2.26745e-07)
     0.984615             (0.194693 -3.40346e-06 2.4684e-06)             (0.194694 7.76345e-07 2.32224e-07)
     0.992308             (0.194696 -3.10671e-06 2.21902e-06)             (0.194696 8.75256e-07 2.3719e-07)
            1             (0.1947 -3.17911e-06 1.97498e-06)             (0.194699 7.78618e-07 2.41148e-07)
      1.00769             (0.194703 -2.81568e-06 1.6974e-06)             (0.194702 8.63578e-07 2.44221e-07)
      1.01538             (0.194706 -3.24462e-06 1.35814e-06)             (0.194705 7.52357e-07 2.48215e-07)
      1.02308             (0.194709 -2.93183e-06 1.14811e-06)             (0.194707 8.68248e-07 2.51463e-07)
      1.03077             (0.194712 -3.71997e-06 1.19547e-06)             (0.19471 6.99065e-07 2.52707e-07)
      1.03846             (0.194715 -4.13435e-06 1.22189e-06)             (0.194712 8.48625e-07 2.51713e-07)
      1.04615             (0.194717 -4.9445e-06 1.4761e-06)             (0.194715 7.31977e-07 2.49449e-07)
      1.05385             (0.19472 -4.70804e-06 1.95942e-06)             (0.194718 7.75901e-07 2.45523e-07)
      1.06154             (0.194722 -4.90882e-06 2.1571e-06)             (0.194721 7.06752e-07 2.41468e-07)
      1.06923             (0.194724 -4.79495e-06 2.12195e-06)             (0.194723 7.80586e-07 2.37519e-07)
      1.07692             (0.194727 -6.00222e-06 1.73969e-06)             (0.194726 6.56858e-07 2.30557e-07)
      1.08462             (0.194729 -5.93456e-06 1.22215e-06)             (0.194728 7.73872e-07 2.23915e-07)
      1.09231             (0.194731 -6.32634e-06 1.08556e-06)             (0.19473 6.4534e-07 2.19928e-07)
          1.1             (0.194734 -5.99464e-06 9.23612e-07)             (0.194733 7.36093e-07 2.14946e-07)
      1.10769             (0.194736 -6.13631e-06 3.17979e-07)             (0.194735 6.3625e-07 2.10489e-07)
      1.11538             (0.194738 -5.21338e-06 -3.45129e-07)             (0.194737 7.093e-07 2.07966e-07)
      1.12308             (0.19474 -4.80486e-06 -1.06562e-06)             (0.19474 5.98342e-07 2.07756e-07)
      1.13077             (0.194742 -3.84822e-06 -1.74587e-06)             (0.194742 6.95818e-07 2.09335e-07)
      1.13846             (0.194745 -3.55633e-06 -2.44404e-06)             (0.194744 5.57334e-07 2.12055e-07)
      1.14615             (0.194747 -2.93072e-06 -2.96812e-06)             (0.194746 6.69599e-07 2.12777e-07)
      1.15385             (0.194749 -3.67686e-06 -2.83107e-06)             (0.194749 5.20384e-07 2.13574e-07)
      1.16154             (0.194752 -3.28978e-06 -2.52705e-06)             (0.194751 6.24639e-07 2.15634e-07)
      1.16923             (0.194753 -3.63441e-06 -2.34094e-06)             (0.194753 5.16467e-07 2.23688e-07)
      1.17692             (0.194755 -3.75851e-06 -2.07601e-06)             (0.194755 5.96245e-07 2.30587e-07)
      1.18462             (0.194757 -4.60072e-06 -1.57316e-06)             (0.194758 4.69846e-07 2.31421e-07)
      1.19231             (0.194759 -4.04981e-06 -1.08709e-06)             (0.194759 5.75514e-07 2.31253e-07)
          1.2             (0.19476 -4.79967e-06 -1.13945e-06)             (0.194762 4.37555e-07 2.30184e-07)
      1.20769             (0.194762 -4.50124e-06 -1.10771e-06)             (0.194763 5.27221e-07 2.31213e-07)
      1.21538             (0.194763 -4.58397e-06 -6.86401e-07)             (0.194766 4.15541e-07 2.28894e-07)
      1.22308             (0.194764 -3.67764e-06 -4.62841e-07)             (0.194768 4.74961e-07 2.24591e-07)
      1.23077             (0.194765 -3.3125e-06 -3.85756e-07)             (0.19477 3.73072e-07 2.22441e-07)
      1.23846             (0.194767 -2.3968e-06 -1.76933e-07)             (0.194772 4.6203e-07 2.18383e-07)
      1.24615             (0.194769 -2.32707e-06 1.27133e-07)             (0.194774 3.22627e-07 2.16202e-07)
      1.25385             (0.194772 -1.64384e-06 3.11623e-07)             (0.194775 4.24044e-07 2.14044e-07)
      1.26154             (0.194774 -1.58091e-06 2.30961e-07)             (0.194778 2.83594e-07 2.09204e-07)
      1.26923             (0.194776 -5.526e-07 1.65038e-07)             (0.194779 3.96336e-07 2.05893e-07)
      1.27692             (0.194778 -1.23112e-06 4.10433e-07)             (0.194781 2.50945e-07 2.04472e-07)
      1.28462             (0.19478 -1.21301e-06 5.87439e-07)             (0.194783 3.22845e-07 2.00651e-07)
      1.29231             (0.194782 -1.59957e-06 4.16265e-07)             (0.194785 2.18902e-07 2.03672e-07)
          1.3             (0.194783 -1.41114e-06 3.03344e-07)             (0.194787 2.7608e-07 2.0447e-07)
      1.30769             (0.194785 -2.2978e-06 5.44429e-07)             (0.194789 1.44897e-07 2.093e-07)
      1.31538             (0.194787 -1.99726e-06 7.78481e-07)             (0.19479 2.408e-07 2.18335e-07)
      1.32308             (0.194788 -2.40294e-06 6.24223e-07)             (0.194792 9.45232e-08 2.21722e-07)
      1.33077             (0.194789 -2.01497e-06 3.42879e-07)             (0.194794 1.90995e-07 2.37168e-07)
      1.33846             (0.194791 -2.21884e-06 2.25991e-08)             (0.194796 3.86309e-08 2.44366e-07)
      1.34615             (0.194793 -1.57188e-06 -2.19274e-07)             (0.194797 7.60378e-08 2.53283e-07)
      1.35385             (0.194794 -1.87027e-06 -3.09968e-07)             (0.194799 -2.06395e-08 2.3529e-07)
      1.36154             (0.194796 -1.69351e-06 -4.32941e-07)             (0.1948 -2.08609e-08 2.73604e-07)
      1.36923             (0.194797 -2.46873e-06 -6.72948e-07)             (0.194802 -5.11722e-08 2.44093e-07)
      1.37692             (0.1948 -2.92866e-06 -8.41833e-07)             (0.194804 2.47015e-09 2.22192e-07)
      1.38462             (0.194801 -3.58302e-06 -8.64131e-07)             (0.194805 -3.59474e-08 2.6596e-07)
      1.39231             (0.194803 -3.02766e-06 -7.9056e-07)             (0.194807 8.04494e-09 2.39452e-07)
          1.4             (0.194804 -3.39263e-06 -5.94051e-07)             (0.194809 -1.90269e-07 2.07934e-07)
      1.40769             (0.194806 -2.56861e-06 -5.28149e-07)             (0.19481 -7.69369e-08 1.43288e-07)
      1.41538             (0.194808 -2.70127e-06 -6.13572e-07)             (0.194812 -3.89674e-07 2.76734e-08)
      1.42308             (0.194809 -2.04813e-06 -4.67828e-07)             (0.194813 -1.71869e-07 3.43585e-08)
      1.43077             (0.19481 -2.5775e-06 -2.34109e-07)             (0.194815 -3.49794e-07 1.22056e-07)
      1.43846             (0.194811 -2.33686e-06 -1.63632e-07)             (0.194816 -2.50163e-07 1.39227e-07)
      1.44615             (0.194813 -2.64579e-06 -2.48181e-07)             (0.194818 -3.99083e-07 1.71987e-07)
      1.45385             (0.194814 -2.13763e-06 -2.86152e-07)             (0.194819 -3.66171e-07 1.84094e-07)
      1.46154             (0.194815 -2.77364e-06 -4.61817e-07)             (0.194821 -5.30926e-07 1.82286e-07)
      1.46923             (0.194817 -2.60779e-06 -6.32618e-07)             (0.194822 -4.25218e-07 1.8067e-07)
      1.47692             (0.194818 -2.96609e-06 -7.23728e-07)             (0.194824 -5.84299e-07 1.88498e-07)
      1.48462             (0.194819 -2.81628e-06 -1.05701e-06)             (0.194825 -5.16931e-07 1.94078e-07)
      1.49231             (0.19482 -3.66151e-06 -1.25301e-06)             (0.194827 -7.20836e-07 1.906e-07)
          1.5             (0.194822 -3.20491e-06 -1.37741e-06)             (0.194828 -6.47515e-07 2.01536e-07)
      1.50769             (0.194824 -3.73169e-06 -1.53887e-06)             (0.194829 -8.32089e-07 2.13709e-07)
      1.51538             (0.194825 -3.385e-06 -1.74566e-06)             (0.19483 -7.62797e-07 2.24453e-07)
      1.52308             (0.194827 -3.73495e-06 -1.90753e-06)             (0.194832 -9.59625e-07 2.37831e-07)
      1.53077             (0.194828 -3.23627e-06 -2.01682e-06)             (0.194833 -9.21773e-07 2.5314e-07)
      1.53846             (0.194829 -3.38763e-06 -2.04277e-06)             (0.194835 -1.09048e-06 2.69552e-07)
      1.54615             (0.194831 -2.58953e-06 -2.02369e-06)             (0.194836 -1.06988e-06 2.79152e-07)
      1.55385             (0.194832 -2.42023e-06 -2.10237e-06)             (0.194837 -1.23581e-06 2.88862e-07)
      1.56154             (0.194833 -2.13526e-06 -2.12352e-06)             (0.194838 -1.22141e-06 2.92984e-07)
      1.56923             (0.194834 -2.79428e-06 -1.98535e-06)             (0.19484 -1.40562e-06 3.01505e-07)
      1.57692             (0.194835 -2.52208e-06 -1.87392e-06)             (0.194841 -1.36313e-06 3.10635e-07)
      1.58462             (0.194836 -2.87285e-06 -1.7212e-06)             (0.194842 -1.56075e-06 3.18261e-07)
      1.59231             (0.194837 -2.26823e-06 -1.58508e-06)             (0.194843 -1.51514e-06 3.20976e-07)
          1.6             (0.194838 -2.56713e-06 -1.74369e-06)             (0.194845 -1.72598e-06 3.35032e-07)
      1.60769             (0.194839 -1.78855e-06 -1.98627e-06)             (0.194845 -1.68677e-06 3.48987e-07)
      1.61538             (0.19484 -1.73481e-06 -2.0142e-06)             (0.194847 -1.8978e-06 3.67996e-07)
      1.62308             (0.194841 -1.08921e-06 -2.05959e-06)             (0.194848 -1.87266e-06 3.93183e-07)
      1.63077             (0.194842 -1.47794e-06 -2.34952e-06)             (0.194849 -2.07644e-06 4.25822e-07)
      1.63846             (0.194843 -1.36291e-06 -2.51521e-06)             (0.19485 -2.069e-06 4.63625e-07)
      1.64615             (0.194844 -1.69998e-06 -2.44885e-06)             (0.194851 -2.26838e-06 5.00778e-07)
      1.65385             (0.194845 -1.27494e-06 -2.35543e-06)             (0.194852 -2.27244e-06 5.44412e-07)
      1.66154             (0.194846 -1.93799e-06 -2.46611e-06)             (0.194853 -2.48709e-06 5.93069e-07)
      1.66923             (0.194847 -1.90784e-06 -2.51158e-06)             (0.194854 -2.49607e-06 6.41553e-07)
      1.67692             (0.194848 -2.55979e-06 -2.37813e-06)             (0.194855 -2.70363e-06 6.83394e-07)
      1.68462             (0.194849 -2.25197e-06 -2.14074e-06)             (0.194856 -2.7168e-06 7.33243e-07)
      1.69231             (0.19485 -2.52764e-06 -1.85022e-06)             (0.194857 -2.90513e-06 7.90752e-07)
          1.7             (0.194852 -2.30799e-06 -1.52811e-06)             (0.194857 -2.88974e-06 8.38571e-07)
      1.70769             (0.194853 -2.93368e-06 -1.27088e-06)             (0.194859 -3.09874e-06 8.8554e-07)
      1.71538             (0.194854 -2.28508e-06 -1.09028e-06)             (0.194859 -3.04691e-06 9.31196e-07)
      1.72308             (0.194855 -2.63435e-06 -9.8174e-07)             (0.19486 -3.23365e-06 9.73742e-07)
      1.73077             (0.194856 -2.00263e-06 -7.65726e-07)             (0.194861 -3.17586e-06 1.0121e-06)
      1.73846             (0.194857 -1.59498e-06 -5.77027e-07)             (0.194861 -3.29818e-06 1.04973e-06)
      1.74615             (0.194858 -6.32362e-07 -6.26425e-07)             (0.194862 -3.20652e-06 1.0812e-06)
      1.75385             (0.194859 -6.02705e-07 -5.04046e-07)             (0.194863 -3.30691e-06 1.10798e-06)
      1.76154             (0.19486 2.23647e-08 -4.00464e-07)             (0.194863 -3.17569e-06 1.13131e-06)